 Gaussian 09, Revision E.01,
 Gaussian 09:  EM64L-G09RevE.01 30-Nov-2015

 ----------------------------------------------------
 # opt=(tight,modredundant) freq apfd/6-31g(d) nosymm
 ----------------------------------------------------

 -------------------
 Title Card Required
 -------------------
 Symbolic Z-matrix:
 Charge =  0 Multiplicity = 1

 SCF Done:  E(RAPFD) =  -1555.56823383     A.U. after   14 cycles
 SCF Done:  E(RAPFD) =  -1555.56780897     A.U. after   13 cycles
 SCF Done:  E(RAPFD) =  -1555.56844149     A.U. after   10 cycles
 SCF Done:  E(RAPFD) =  -1555.56816207     A.U. after   12 cycles
 SCF Done:  E(RAPFD) =  -1555.56863039     A.U. after    9 cycles
 SCF Done:  E(RAPFD) =  -1555.56872936     A.U. after   11 cycles
 SCF Done:  E(RAPFD) =  -1555.56807096     A.U. after   12 cycles
 SCF Done:  E(RAPFD) =  -1555.56875436     A.U. after    9 cycles
 SCF Done:  E(RAPFD) =  -1555.56879484     A.U. after   10 cycles
 SCF Done:  E(RAPFD) =  -1555.56881442     A.U. after   11 cycles
 SCF Done:  E(RAPFD) =  -1555.56884262     A.U. after    6 cycles
 SCF Done:  E(RAPFD) =  -1555.56884262     A.U. after    6 cycles
 SCF Done:  E(RAPFD) =  -1555.56884263     A.U. after    5 cycles
 SCF Done:  E(RAPFD) =  -1555.56884263     A.U. after    4 cycles
 SCF Done:  E(RAPFD) =  -1555.56884263     A.U. after    4 cycles
 SCF Done:  E(RAPFD) =  -1555.56884263     A.U. after    5 cycles
 SCF Done:  E(RAPFD) =  -1555.56884263     A.U. after    4 cycles
 SCF Done:  E(RAPFD) =  -1555.56884263     A.U. after    4 cycles
 SCF Done:  E(RAPFD) =  -1555.56884263     A.U. after    4 cycles
 Optimization completed.
    -- Stationary point found.
 Normal termination of Gaussian 09 at Wed Mar 24 06:25:56 2021.

 -------------------------------------------------------------------
 #N Geom=AllCheck Guess=TCheck SCRF=Check GenChk RAPFD/6-31G(d) Freq
 -------------------------------------------------------------------

 Structure from the checkpoint file:  "/localscratch/enas93.64557540.0/Gau-13227.chk"
 -------------------
 Title Card Required
 -------------------
 Charge =  0 Multiplicity = 1

                          Input orientation:
 ---------------------------------------------------------------------
 Center     Atomic      Atomic             Coordinates (Angstroms)
 Number     Number       Type             X           Y           Z
 ---------------------------------------------------------------------
      1          6           0       -1.452957    2.920319    1.038882
      2          6           0       -2.623712    1.098914    2.858165
      3          6           0       -3.067144    2.367661    2.774676
      4          7           0       -2.499955    3.243197    1.898359
      5          1           0       -3.068328    0.394532    3.550375
      6          1           0       -3.877983    2.756486    3.381614
      7          8           0       -0.990565    3.748924    0.280950
      8          7           0       -1.008080    1.605202    1.136596
      9          6           0       -1.539695    0.660346    2.003796
     10          7           0       -1.045801   -0.536328    2.010762
     11          1           0       -0.085558   -1.359587    1.120783
     12          1           0       -1.525970   -1.129610    2.681159
     13          1           0       -2.820269    4.197529    1.817153
     14         15           0       -0.282137   -2.447540   -0.769774
     15          8           0       -0.788852   -1.439714   -1.726266
     16          8           0        0.483410   -2.003851    0.529886
     17          8           0       -1.469670   -3.386467   -0.178152
     18          8           0        0.775277   -3.448797   -1.459465
     19          1           0       -2.197592   -3.396152   -0.817335
     20          1           0        1.253309   -3.956485   -0.787355
     21         16           0        2.985871    1.199675   -1.934152
     22          6           0        2.499100   -0.545613   -1.989942
     23          1           0        3.172590   -1.127369   -2.627873
     24          1           0        2.476800   -0.980674   -0.986042
     25          1           0        1.488120   -0.596941   -2.400732
     26          6           0        4.599371    1.034035   -1.124556
     27          1           0        5.017674    2.038285   -1.015173
     28          1           0        4.502053    0.584296   -0.130276
     29          1           0        5.288608    0.431923   -1.726625
     30          6           0        0.076257    1.203835    0.241131
     31          1           0        0.435370    2.089960   -0.274800
     32          1           0       -0.287122    0.471025   -0.483703
     33          1           0        0.887299    0.766182    0.826236
 ---------------------------------------------------------------------

 SCF Done:  E(RAPFD) =  -1555.56884263     A.U. after    1 cycles

 Alpha  occ. eigenvalues --  -88.93515 -77.29201 -19.21229 -19.21178 -19.18733
 Alpha  occ. eigenvalues --  -19.17722 -19.13507 -14.45064 -14.44194 -14.36971
 Alpha  occ. eigenvalues --  -10.36621 -10.32374 -10.30415 -10.24562 -10.22389
 Alpha  occ. eigenvalues --  -10.21782 -10.20333  -7.95107  -6.69862  -5.89908
 Alpha  occ. eigenvalues --   -5.89525  -5.88818  -4.84591  -4.84545  -4.84372
 Alpha  occ. eigenvalues --   -1.10370  -1.09773  -1.03890  -1.02198  -1.01704
 Alpha  occ. eigenvalues --   -0.99189  -0.96098  -0.91843  -0.82177  -0.79194
 Alpha  occ. eigenvalues --   -0.75148  -0.69844  -0.69255  -0.67279  -0.63042
 Alpha  occ. eigenvalues --   -0.60390  -0.58888  -0.58394  -0.56018  -0.54942
 Alpha  occ. eigenvalues --   -0.51819  -0.50719  -0.50126  -0.47616  -0.45971
 Alpha  occ. eigenvalues --   -0.45304  -0.44260  -0.43825  -0.43062  -0.42826
 Alpha  occ. eigenvalues --   -0.42768  -0.41163  -0.40174  -0.39877  -0.39647
 Alpha  occ. eigenvalues --   -0.39237  -0.37621  -0.36934  -0.36678  -0.35331
 Alpha  occ. eigenvalues --   -0.34055  -0.32710  -0.31006  -0.30063  -0.29863
 Alpha  occ. eigenvalues --   -0.28966  -0.28300  -0.27483  -0.25806  -0.20708
 Alpha virt. eigenvalues --   -0.04697   0.00595   0.05501   0.06128   0.07199
 Alpha virt. eigenvalues --    0.09915   0.10442   0.10975   0.11334   0.11578
 Alpha virt. eigenvalues --    0.12086   0.14812   0.15209   0.15603   0.16477

 Mulliken charges:
               1
     1  C    0.826675
     2  C   -0.300649
     3  C    0.108600
     4  N   -0.700758
     5  H    0.195230
     6  H    0.216113
     7  O   -0.499447
     8  N   -0.592486
     9  C    0.650014
    10  N   -0.809007
    11  H    0.528693
    12  H    0.336100
    13  H    0.384701
    14  P    1.164754
    15  O   -0.593515
    16  O   -0.739310
    17  O   -0.668132
    18  O   -0.655996
    19  H    0.446150
    20  H    0.445203
    21  S    0.093922
    22  C   -0.687939
    23  H    0.191634
    24  H    0.203581
    25  H    0.247325
    26  C   -0.661564
    27  H    0.203821
    28  H    0.194507
    29  H    0.196625
    30  C   -0.433778
    31  H    0.250573
    32  H    0.254037
    33  H    0.204325
 Sum of Mulliken charges =  -0.00000

 Dipole moment (field-independent basis, Debye):
    X=             -3.9738    Y=              0.1705    Z=              7.0812  Tot=              8.1218
 Quadrupole moment (field-independent basis, Debye-Ang):
   XX=            -88.2500   YY=           -106.6292   ZZ=           -111.3318
   XY=            -13.5130   XZ=            -12.9849   YZ=             12.2225

  Exact polarizability: 139.764 -11.555 171.041 -26.541  -1.352 119.481
 Approx polarizability: 185.023 -20.589 258.425 -22.239 -23.538 172.890

                      1                      2                      3
                      A                      A                      A
 Frequencies --     15.8093                25.3179                29.5725
 Red. masses --      6.0345                 4.3527                 4.1925
 Frc consts  --      0.0009                 0.0016                 0.0022
 IR Inten    --      0.7359                 3.9002                 0.8707

                      4                      5                      6
                      A                      A                      A
 Frequencies --     33.5993                39.8530                48.9233
 Red. masses --      5.5054                 4.5015                 7.0928
 Frc consts  --      0.0037                 0.0042                 0.0100
 IR Inten    --      0.5072                 1.1035                 0.0551

                      7                      8                      9
                      A                      A                      A
 Frequencies --     61.0715                63.4192                89.9831
 Red. masses --      5.0125                 5.2952                 6.0060
 Frc consts  --      0.0110                 0.0125                 0.0287
 IR Inten    --      3.5051                 3.1943                 1.0680

                     10                     11                     12
                      A                      A                      A
 Frequencies --    102.2570               103.7008               131.2659
 Red. masses --      3.8084                 7.5591                 4.9555
 Frc consts  --      0.0235                 0.0479                 0.0503
 IR Inten    --      5.2771                 4.9612                 1.9181

                     13                     14                     15
                      A                      A                      A
 Frequencies --    162.3270               179.1015               192.9959
 Red. masses --      5.1018                 3.5414                 1.0961
 Frc consts  --      0.0792                 0.0669                 0.0241
 IR Inten    --     11.5079                63.9303                 1.2457

                     16                     17                     18
                      A                      A                      A
 Frequencies --    226.3242               237.0710               249.9012
 Red. masses --      1.4949                 2.8049                 1.1488
 Frc consts  --      0.0451                 0.0929                 0.0423
 IR Inten    --     54.9939                 9.4441                 2.9850

                     19                     20                     21
                      A                      A                      A
 Frequencies --    284.5798               292.0101               296.3971
 Red. masses --      1.0652                 1.7252                 2.2775
 Frc consts  --      0.0508                 0.0867                 0.1179
 IR Inten    --      2.3724                29.8612                 0.4043

                     22                     23                     24
                      A                      A                      A
 Frequencies --    336.6132               391.7257               409.3511
 Red. masses --      3.4024                 3.0098                 3.2898
 Frc consts  --      0.2271                 0.2721                 0.3248
 IR Inten    --      8.2750                 9.4829                24.4823

                     25                     26                     27
                      A                      A                      A
 Frequencies --    425.0774               427.3715               436.8613
 Red. masses --      3.6303                 5.2312                 3.4958
 Frc consts  --      0.3865                 0.5629                 0.3931
 IR Inten    --     28.0210                53.1713                65.6328

                     28                     29                     30
                      A                      A                      A
 Frequencies --    477.7533               483.3533               522.4213
 Red. masses --     10.0536                10.2943                 7.5305
 Frc consts  --      1.3520                 1.4170                 1.2109
 IR Inten    --     91.4486                67.8007                20.8266

                     31                     32                     33
                      A                      A                      A
 Frequencies --    553.9064               574.9011               581.8741
 Red. masses --      6.0916                 1.1808                 4.3213
 Frc consts  --      1.1012                 0.2299                 0.8620
 IR Inten    --     25.1227                75.8555                 6.8571

                     34                     35                     36
                      A                      A                      A
 Frequencies --    710.5420               716.9250               720.3225
 Red. masses --      1.7484                 4.6037                 4.9920
 Frc consts  --      0.5201                 1.3941                 1.5261
 IR Inten    --      7.5806                 4.1753                 1.4086

                     37                     38                     39
                      A                      A                      A
 Frequencies --    740.7633               758.1455               760.2724
 Red. masses --      2.2685                 5.7095                 4.4423
 Frc consts  --      0.7334                 1.9336                 1.5129
 IR Inten    --      0.8378                 0.2815                28.6856

                     40                     41                     42
                      A                      A                      A
 Frequencies --    806.0945               833.6703               874.2143
 Red. masses --      1.4622                11.5913                 6.0719
 Frc consts  --      0.5598                 4.7465                 2.7341
 IR Inten    --    112.1551               105.0481                11.3190

                     43                     44                     45
                      A                      A                      A
 Frequencies --    923.3363               931.5987               959.9485
 Red. masses --      1.2091                13.0286                 1.2772
 Frc consts  --      0.6073                 6.6620                 0.6934
 IR Inten    --      2.7001               280.2146                 0.5287

                     46                     47                     48
                      A                      A                      A
 Frequencies --    996.4100              1001.7402              1011.2427
 Red. masses --      3.3277                 1.1848                 2.7109
 Frc consts  --      1.9466                 0.7005                 1.6334
 IR Inten    --    178.2337                 6.3974               133.2791

                     49                     50                     51
                      A                      A                      A
 Frequencies --   1042.5379              1047.1995              1070.8788
 Red. masses --      1.2216                 1.1464                 1.4135
 Frc consts  --      0.7823                 0.7407                 0.9551
 IR Inten    --     23.8683               184.7613                18.3764

                     52                     53                     54
                      A                      A                      A
 Frequencies --   1082.4409              1095.3167              1134.8552
 Red. masses --      1.3760                 1.5073                 2.0048
 Frc consts  --      0.9499                 1.0654                 1.5213
 IR Inten    --     61.7508               127.3567                17.2467

                     55                     56                     57
                      A                      A                      A
 Frequencies --   1167.4337              1169.8896              1195.5339
 Red. masses --      1.3271                 1.8354                 2.2012
 Frc consts  --      1.0656                 1.4800                 1.8537
 IR Inten    --      6.3282                87.5939                 5.7234

                     58                     59                     60
                      A                      A                      A
 Frequencies --   1260.2519              1307.1614              1316.7938
 Red. masses --      1.3887                 1.4730                 2.1493
 Frc consts  --      1.2995                 1.4829                 2.1957
 IR Inten    --     16.6893               142.1203                20.1271

                     61                     62                     63
                      A                      A                      A
 Frequencies --   1342.7652              1361.1886              1382.4079
 Red. masses --      1.9697                 3.1434                 1.1578
 Frc consts  --      2.0924                 3.4316                 1.3037
 IR Inten    --    222.2869                70.5545                 1.9940

                     64                     65                     66
                      A                      A                      A
 Frequencies --   1413.7435              1425.3673              1452.7460
 Red. masses --      1.1595                 1.4922                 1.2654
 Frc consts  --      1.3655                 1.7862                 1.5734
 IR Inten    --      3.4573                18.1436                 2.1629

                     67                     68                     69
                      A                      A                      A
 Frequencies --   1494.5034              1501.8440              1506.3041
 Red. masses --      1.0483                 1.8881                 1.0665
 Frc consts  --      1.3795                 2.5092                 1.4258
 IR Inten    --      0.5133                53.2207                27.6174

                     70                     71                     72
                      A                      A                      A
 Frequencies --   1509.6903              1516.8959              1530.1648
 Red. masses --      1.0497                 1.0482                 1.0825
 Frc consts  --      1.4096                 1.4210                 1.4933
 IR Inten    --     40.4607                 3.2921                15.2285

                     73                     74                     75
                      A                      A                      A
 Frequencies --   1545.4747              1559.2921              1670.4730
 Red. masses --      1.2185                 2.4910                 7.7194
 Frc consts  --      1.7148                 3.5684                12.6915
 IR Inten    --      7.2297               130.5966               376.4129

                     76                     77                     78
                      A                      A                      A
 Frequencies --   1737.0900              1852.0795              2435.0735
 Red. masses --      6.2040                 8.9700                 1.1030
 Frc consts  --     11.0297                18.1285                 3.8535
 IR Inten    --    649.1025               447.2127              3637.6131

                     79                     80                     81
                      A                      A                      A
 Frequencies --   3066.7232              3076.3444              3106.2333
 Red. masses --      1.0308                 1.0313                 1.0361
 Frc consts  --      5.7116                 5.7504                 5.8899
 IR Inten    --     36.3972                15.3814                 9.0165

                     82                     83                     84
                      A                      A                      A
 Frequencies --   3150.8250              3166.5559              3168.5402
 Red. masses --      1.1059                 1.1057                 1.1046
 Frc consts  --      6.4686                 6.5325                 6.5337
 IR Inten    --     22.1447                 7.3459                 8.5002

                     85                     86                     87
                      A                      A                      A
 Frequencies --   3183.9695              3189.8732              3248.2777
 Red. masses --      1.1052                 1.1069                 1.0903
 Frc consts  --      6.6012                 6.6360                 6.7781
 IR Inten    --      5.4076                16.9497                 2.1991

                     88                     89                     90
                      A                      A                      A
 Frequencies --   3251.2251              3269.2200              3574.5712
 Red. masses --      1.1014                 1.0988                 1.0753
 Frc consts  --      6.8597                 6.9193                 8.0956
 IR Inten    --      5.2974                 0.9106                12.3098

                     91                     92                     93
                      A                      A                      A
 Frequencies --   3670.3860              3807.2223              3810.4312
 Red. masses --      1.0786                 1.0653                 1.0656
 Frc consts  --      8.5614                 9.0980                 9.1157
 IR Inten    --    123.9865               120.1770                57.9572

 - Thermochemistry -
 -------------------
 Temperature   298.150 Kelvin.  Pressure   1.00000 Atm.
 Atom     1 has atomic number  6 and mass  12.00000

 Molecular mass:   285.05483 amu.
 Principal axes and moments of inertia in atomic units:
                           1         2         3
     Eigenvalues --  4833.818767582.65361**********
           X            0.61851   0.57423   0.53638
           Y           -0.57098   0.79740  -0.19527
           Z           -0.53984  -0.18548   0.82108
 This molecule is an asymmetric top.
 Rotational symmetry number  1.
 Warning -- assumption of classical behavior for rotation
           may cause significant error
 Rotational temperatures (Kelvin)      0.01792     0.01142     0.00769
 Rotational constants (GHZ):           0.37336     0.23801     0.16015
 Zero-point vibrational energy     676486.5 (Joules/Mol)
                                  161.68415 (Kcal/Mol)
 Warning -- explicit consideration of  33 degrees of freedom as
           vibrations may cause significant error
 Vibrational temperatures:     22.75    36.43    42.55    48.34    57.34
          (Kelvin)             70.39    87.87    91.25   129.47   147.12
                              149.20   188.86   233.55   257.69   277.68
                              325.63   341.09   359.55   409.45   420.14
                              426.45   484.31   563.61   588.96   611.59
                              614.89   628.55   687.38   695.44   751.65
                              796.95   827.15   837.19  1022.31  1031.49
                             1036.38  1065.79  1090.80  1093.86  1159.79
                             1199.46  1257.80  1328.47  1340.36  1381.15
                             1433.61  1441.28  1454.95  1499.98  1506.68
                             1540.75  1557.39  1575.91  1632.80  1679.67
                             1683.21  1720.10  1813.22  1880.71  1894.57
                             1931.94  1958.44  1988.97  2034.06  2050.78
                             2090.17  2150.25  2160.82  2167.23  2172.10
                             2182.47  2201.56  2223.59  2243.47  2403.43
                             2499.28  2664.73  3503.52  4412.33  4426.17
                             4469.17  4533.33  4555.96  4558.82  4581.02
                             4589.51  4673.54  4677.78  4703.67  5143.00
                             5280.86  5477.74  5482.35

 Zero-point correction=                           0.257660 (Hartree/Particle)
 Thermal correction to Energy=                    0.279283
 Thermal correction to Enthalpy=                  0.280228
 Thermal correction to Gibbs Free Energy=         0.202283
 Sum of electronic and zero-point Energies=          -1555.311183
 Sum of electronic and thermal Energies=             -1555.289559
 Sum of electronic and thermal Enthalpies=           -1555.288615
 Sum of electronic and thermal Free Energies=        -1555.366560

                     E (Thermal)             CV                S
                      KCal/Mol        Cal/Mol-Kelvin    Cal/Mol-Kelvin
 Total                  175.253             74.483            164.049
 Electronic               0.000              0.000              0.000
 Translational            0.889              2.981             42.840
 Rotational               0.889              2.981             34.379
 Vibrational            173.476             68.521             86.830
 Vibration     1          0.593              1.986              7.101
 Vibration     2          0.593              1.985              6.166
 Vibration     3          0.593              1.984              5.858
 Vibration     4          0.594              1.983              5.605
 Vibration     5          0.594              1.981              5.266
 Vibration     6          0.595              1.978              4.860
 Vibration     7          0.597              1.973              4.422
 Vibration     8          0.597              1.972              4.348
 Vibration     9          0.602              1.956              3.660
 Vibration    10          0.604              1.947              3.411
 Vibration    11          0.605              1.946              3.384
 Vibration    12          0.612              1.922              2.927
 Vibration    13          0.622              1.889              2.523
 Vibration    14          0.629              1.868              2.338
 Vibration    15          0.635              1.850              2.199
 Vibration    16          0.650              1.801              1.908
 Vibration    17          0.656              1.784              1.825
 Vibration    18          0.663              1.763              1.731
 Vibration    19          0.683              1.702              1.506
 Vibration    20          0.687              1.689              1.462
 Vibration    21          0.690              1.680              1.437
 Vibration    22          0.717              1.602              1.228
 Vibration    23          0.759              1.488              0.994
 Vibration    24          0.774              1.450              0.929
 Vibration    25          0.787              1.416              0.875
 Vibration    26          0.789              1.411              0.867
 Vibration    27          0.797              1.390              0.837
 Vibration    28          0.834              1.299              0.716
 Vibration    29          0.840              1.287              0.701
 Vibration    30          0.877              1.200              0.604
 Vibration    31          0.909              1.131              0.536
 Vibration    32          0.931              1.086              0.495
 Vibration    33          0.939              1.071              0.482

 Normal termination of Gaussian 09 at Wed Mar 24 06:28:57 2021.
