 Gaussian 09, Revision E.01,
 Gaussian 09:  EM64L-G09RevE.01 30-Nov-2015

 --------------------------------
 # opt freq b3lyp/6-31g(d) nosymm
 --------------------------------

 -------------------
 Title Card Required
 -------------------
 Symbolic Z-matrix:
 Charge =  0 Multiplicity = 1

 SCF Done:  E(RB3LYP) =  -1350.85907549     A.U. after   18 cycles
 Optimization completed.
    -- Stationary point found.
 Normal termination of Gaussian 09 at Fri Feb 12 10:54:04 2021.

 --------------------------------------------------------------------
 #N Geom=AllCheck Guess=TCheck SCRF=Check GenChk RB3LYP/6-31G(d) Freq
 --------------------------------------------------------------------

 Structure from the checkpoint file:  "/localscratch/enas93.61778963.0/Gau-106295.chk"
 -------------------
 Title Card Required
 -------------------
 Charge =  0 Multiplicity = 1

                          Input orientation:
 ---------------------------------------------------------------------
 Center     Atomic      Atomic             Coordinates (Angstroms)
 Number     Number       Type             X           Y           Z
 ---------------------------------------------------------------------
      1          6           0       -0.189685    1.575073   -0.817472
      2          6           0       -2.510181    0.032433   -1.043843
      3          6           0       -2.309725    0.845838    0.164414
      4          7           0       -1.346837    1.870749   -0.076092
      5          1           0       -3.421226   -0.543922   -1.158386
      6          1           0       -3.225648    1.272618    0.578811
      7          8           0        0.866838    2.175518   -0.547328
      8          7           0       -0.280503    0.627572   -1.792606
      9          6           0       -1.469048   -0.056465   -1.922640
     10          7           0       -1.475468   -0.918789   -3.027601
     11          1           0       -0.947755   -0.531377   -3.803029
     12          1           0       -2.401902   -1.212165   -3.315891
     13          1           0       -1.139571    2.501040    0.689699
     14         16           0        3.047201   -1.433348    0.183293
     15          6           0        3.365987    0.148096    1.042728
     16          1           0        4.142801    0.666249    0.476135
     17          1           0        2.458883    0.761261    1.051318
     18          1           0        3.727474   -0.056910    2.052629
     19          6           0        1.458670   -0.661269   -1.036072
     20          1           0        0.689507   -0.792751   -0.289002
     21          1           0        1.862438    0.332300   -1.176466
     22          1           0        1.439349   -1.337097   -1.882691
     23          6           0        2.045934   -2.316653    1.426819
     24          1           0        1.735871   -3.262704    0.976635
     25          1           0        2.660888   -2.518477    2.306892
     26          1           0        1.159936   -1.730284    1.693143
     27          6           0       -1.713158    0.792780    3.059153
     28          1           0       -0.942679    1.562504    2.938991
     29          1           0       -2.688248    1.276024    3.186954
     30          1           0       -1.493420    0.226206    3.968606
     31         16           0       -1.740020   -0.375088    1.645849
 ---------------------------------------------------------------------

 SCF Done:  E(RB3LYP) =  -1350.85907549     A.U. after    1 cycles

 Alpha  occ. eigenvalues --  -88.95563 -88.83404 -19.06808 -14.32460 -14.31612
 Alpha  occ. eigenvalues --  -14.27565 -10.26102 -10.24999 -10.24562 -10.23707
 Alpha  occ. eigenvalues --  -10.23351 -10.22096 -10.19438 -10.13673  -8.01589
 Alpha  occ. eigenvalues --   -7.89494  -5.97962  -5.97658  -5.97279  -5.85990
 Alpha  occ. eigenvalues --   -5.85614  -5.85007  -0.99601  -0.91607  -0.88883
 Alpha  occ. eigenvalues --   -0.86194  -0.82324  -0.75084  -0.74796  -0.72235
 Alpha  occ. eigenvalues --   -0.71238  -0.64311  -0.63363  -0.59175  -0.58460
 Alpha  occ. eigenvalues --   -0.51008  -0.49509  -0.48671  -0.48489  -0.47559
 Alpha  occ. eigenvalues --   -0.46837  -0.45514  -0.44516  -0.44112  -0.42712
 Alpha  occ. eigenvalues --   -0.42080  -0.41245  -0.40832  -0.40270  -0.39546
 Alpha  occ. eigenvalues --   -0.37746  -0.36959  -0.36417  -0.34586  -0.32412
 Alpha  occ. eigenvalues --   -0.32036  -0.30005  -0.23894  -0.22907  -0.21692
 Alpha  occ. eigenvalues --   -0.20950  -0.19767  -0.15783
 Alpha virt. eigenvalues --   -0.02832  -0.00713   0.03152   0.04465   0.04721
 Alpha virt. eigenvalues --    0.06483   0.08287   0.09577   0.10040   0.10320
 Alpha virt. eigenvalues --    0.11791   0.12667   0.13546   0.13819   0.14139

 Mulliken charges:
               1
     1  C    0.690890
     2  C   -0.224384
     3  C   -0.102389
     4  N   -0.562292
     5  H    0.106922
     6  H    0.161517
     7  O   -0.599273
     8  N   -0.617441
     9  C    0.466161
    10  N   -0.771474
    11  H    0.316187
    12  H    0.310414
    13  H    0.314927
    14  S    0.329062
    15  C   -0.610337
    16  H    0.214681
    17  H    0.250790
    18  H    0.195680
    19  C   -0.497706
    20  H    0.244228
    21  H    0.265725
    22  H    0.213490
    23  C   -0.611019
    24  H    0.212529
    25  H    0.201159
    26  H    0.242887
    27  C   -0.586463
    28  H    0.161184
    29  H    0.167718
    30  H    0.171944
    31  S   -0.055317
 Sum of Mulliken charges =  -0.00000

 Dipole moment (field-independent basis, Debye):
    X=              3.9458    Y=             -3.6617    Z=              2.4531  Tot=              5.9157
 Quadrupole moment (field-independent basis, Debye-Ang):
   XX=            -86.6197   YY=           -102.8324   ZZ=            -90.0274
   XY=             -9.2722   XZ=              9.3897   YZ=              6.3772

  Exact polarizability: 194.101 -16.471 135.718   8.659   3.382 170.174
 Approx polarizability: 298.236 -20.542 223.907  13.473  -0.688 261.129

 ******    1 imaginary frequencies (negative Signs) ******

                      1                      2                      3
                      A                      A                      A
 Frequencies --   -395.1997                30.8160                40.6426
 Red. masses --      9.2040                 4.2179                 3.8463
 Frc consts  --      0.8470                 0.0024                 0.0037
 IR Inten    --    786.0640                 1.5232                 4.8257

                      4                      5                      6
                      A                      A                      A
 Frequencies --     59.4718                63.1286                85.4655
 Red. masses --      4.4707                 4.0199                 3.7666
 Frc consts  --      0.0093                 0.0094                 0.0162
 IR Inten    --      1.6422                13.2592                14.6008

                      7                      8                      9
                      A                      A                      A
 Frequencies --     97.8572               115.5181               117.4098
 Red. masses --      3.8055                 1.9715                 3.1681
 Frc consts  --      0.0215                 0.0155                 0.0257
 IR Inten    --      1.4091                 4.5821                 2.1764

                     10                     11                     12
                      A                      A                      A
 Frequencies --    125.8709               155.3399               183.0197
 Red. masses --      1.7676                 1.0845                 2.8847
 Frc consts  --      0.0165                 0.0154                 0.0569
 IR Inten    --      1.0780                 0.5997                 0.5123

                     13                     14                     15
                      A                      A                      A
 Frequencies --    190.0942               206.0472               216.0011
 Red. masses --      1.5970                 2.6290                 1.3159
 Frc consts  --      0.0340                 0.0658                 0.0362
 IR Inten    --      2.1308                 0.6157                 3.9089

                     16                     17                     18
                      A                      A                      A
 Frequencies --    243.7399               260.7513               270.7612
 Red. masses --      7.5247                 2.3847                 3.2506
 Frc consts  --      0.2634                 0.0955                 0.1404
 IR Inten    --     90.9059                13.1386                 2.5687

                     19                     20                     21
                      A                      A                      A
 Frequencies --    322.5958               337.2122               350.9184
 Red. masses --      3.3175                 2.8338                 3.4422
 Frc consts  --      0.2034                 0.1899                 0.2497
 IR Inten    --      4.9513                 8.2322                17.0058

                     22                     23                     24
                      A                      A                      A
 Frequencies --    361.5789               402.0447               526.9649
 Red. masses --      1.8479                 1.8950                 5.3492
 Frc consts  --      0.1423                 0.1805                 0.8752
 IR Inten    --     12.6737                13.6341                13.6794

                     25                     26                     27
                      A                      A                      A
 Frequencies --    530.1226               565.4894               579.0653
 Red. masses --      5.7194                 5.1907                 3.9535
 Frc consts  --      0.9470                 0.9780                 0.7811
 IR Inten    --     31.9474                12.9520                38.6969

                     28                     29                     30
                      A                      A                      A
 Frequencies --    664.7796               666.7472               671.8845
 Red. masses --      1.6188                 1.7208                 5.2331
 Frc consts  --      0.4215                 0.4507                 1.3919
 IR Inten    --     12.8191               261.1701                 3.6681

                     31                     32                     33
                      A                      A                      A
 Frequencies --    690.5309               706.5233               725.3277
 Red. masses --      1.5593                 4.9781                 6.7039
 Frc consts  --      0.4381                 1.4641                 2.0780
 IR Inten    --     99.4203                13.8305                 0.3735

                     34                     35                     36
                      A                      A                      A
 Frequencies --    770.2140               784.4648               808.9574
 Red. masses --      4.8026                 2.7201                 9.3051
 Frc consts  --      1.6786                 0.9863                 3.5878
 IR Inten    --     31.9942               110.8331                55.2236

                     37                     38                     39
                      A                      A                      A
 Frequencies --    947.5010               954.1748               965.2009
 Red. masses --      1.1668                 2.9587                 1.5123
 Frc consts  --      0.6172                 1.5871                 0.8301
 IR Inten    --      0.8182                23.0435                 5.4006

                     40                     41                     42
                      A                      A                      A
 Frequencies --    976.3543               985.9890               998.1103
 Red. masses --      1.2294                 1.1041                 1.1733
 Frc consts  --      0.6905                 0.6324                 0.6887
 IR Inten    --      8.3993                20.9415                 1.8474

                     43                     44                     45
                      A                      A                      A
 Frequencies --   1000.3583              1037.9588              1048.1649
 Red. masses --      2.0663                 1.1998                 2.8059
 Frc consts  --      1.2183                 0.7616                 1.8163
 IR Inten    --     29.4345                 0.2269                25.0262

                     46                     47                     48
                      A                      A                      A
 Frequencies --   1080.2642              1102.2332              1154.4001
 Red. masses --      1.3232                 1.0895                 1.3731
 Frc consts  --      0.9098                 0.7799                 1.0781
 IR Inten    --     10.9793                10.1568                64.9132

                     49                     50                     51
                      A                      A                      A
 Frequencies --   1160.8413              1202.3597              1234.9195
 Red. masses --      1.4269                 1.0949                 1.4133
 Frc consts  --      1.1329                 0.9326                 1.2699
 IR Inten    --     73.2841                26.5282                41.5067

                     52                     53                     54
                      A                      A                      A
 Frequencies --   1279.3830              1284.7659              1376.1308
 Red. masses --      3.9125                 2.1604                 1.1629
 Frc consts  --      3.7731                 2.1011                 1.2976
 IR Inten    --     58.1606                72.6841                 2.9614

                     55                     56                     57
                      A                      A                      A
 Frequencies --   1389.3209              1409.4085              1412.9119
 Red. masses --      1.1450                 1.8885                 1.1927
 Frc consts  --      1.3022                 2.2102                 1.4028
 IR Inten    --      1.0044                82.2495                 2.2263

                     58                     59                     60
                      A                      A                      A
 Frequencies --   1417.8095              1435.6790              1442.6428
 Red. masses --      1.1124                 1.0987                 2.1786
 Frc consts  --      1.3175                 1.3342                 2.6714
 IR Inten    --     10.6683                 5.0015                86.4262

                     61                     62                     63
                      A                      A                      A
 Frequencies --   1481.2244              1490.6737              1492.3973
 Red. masses --      2.1651                 1.0701                 1.0798
 Frc consts  --      2.7987                 1.4010                 1.4170
 IR Inten    --    172.4839                14.7082                 6.0041

                     64                     65                     66
                      A                      A                      A
 Frequencies --   1503.2301              1504.5293              1506.1086
 Red. masses --      1.0509                 1.0588                 1.0511
 Frc consts  --      1.3991                 1.4121                 1.4047
 IR Inten    --     22.7046                14.8787                 9.2498

                     67                     68                     69
                      A                      A                      A
 Frequencies --   1516.5311              1644.8410              1679.9102
 Red. masses --      1.0655                 2.0402                 1.9339
 Frc consts  --      1.4439                 3.2522                 3.2156
 IR Inten    --      4.0406               156.4799               286.9300

                     70                     71                     72
                      A                      A                      A
 Frequencies --   1708.7719              3040.8076              3059.0148
 Red. masses --      5.7217                 1.0315                 1.0329
 Frc consts  --      9.8433                 5.6196                 5.6949
 IR Inten    --    362.7545                48.3748                15.3149

                     73                     74                     75
                      A                      A                      A
 Frequencies --   3067.7483              3102.5673              3111.9268
 Red. masses --      1.0311                 1.0899                 1.1061
 Frc consts  --      5.7171                 6.1815                 6.3110
 IR Inten    --     16.2177                42.2567                13.0740

                     76                     77                     78
                      A                      A                      A
 Frequencies --   3136.0043              3140.5389              3156.2956
 Red. masses --      1.1022                 1.0118                 1.1053
 Frc consts  --      6.3863                 5.8798                 6.4874
 IR Inten    --      8.4797                 9.0629                 5.9547

                     79                     80                     81
                      A                      A                      A
 Frequencies --   3165.9393              3174.9472              3180.0478
 Red. masses --      1.1067                 1.1063                 1.1068
 Frc consts  --      6.5358                 6.5702                 6.5945
 IR Inten    --      4.4577                 0.7487                 0.7289

                     82                     83                     84
                      A                      A                      A
 Frequencies --   3215.3579              3322.5490              3327.6018
 Red. masses --      1.0912                 1.1202                 1.1242
 Frc consts  --      6.6468                 7.2860                 7.3341
 IR Inten    --     12.7753                 8.4641                11.3829

                     85                     86                     87
                      A                      A                      A
 Frequencies --   3526.3543              3581.4344              3632.4374
 Red. masses --      1.0479                 1.0755                 1.0969
 Frc consts  --      7.6773                 8.1282                 8.5274
 IR Inten    --      6.9632                 5.2759                 4.9391

 - Thermochemistry -
 -------------------
 Temperature   298.150 Kelvin.  Pressure   1.00000 Atm.
 Atom     1 has atomic number  6 and mass  12.00000

 Molecular mass:   235.08131 amu.
 Principal axes and moments of inertia in atomic units:
                           1         2         3
     Eigenvalues --  3052.289204808.132525810.37715
           X            0.93748  -0.13976   0.31875
           Y           -0.31950   0.01767   0.94742
           Z            0.13804   0.99003   0.02808
 This molecule is an asymmetric top.
 Rotational symmetry number  1.
 Warning -- assumption of classical behavior for rotation
           may cause significant error
 Rotational temperatures (Kelvin)      0.02838     0.01801     0.01491
 Rotational constants (GHZ):           0.59127     0.37535     0.31061
    1 imaginary frequencies ignored.
 Zero-point vibrational energy     668078.7 (Joules/Mol)
                                  159.67463 (Kcal/Mol)
 Warning -- explicit consideration of  26 degrees of freedom as
           vibrations may cause significant error
 Vibrational temperatures:     44.34    58.48    85.57    90.83   122.97
          (Kelvin)            140.79   166.20   168.93   181.10   223.50
                              263.32   273.50   296.46   310.78   350.69
                              375.16   389.56   464.14   485.17   504.89
                              520.23   578.45   758.18   762.73   813.61
                              833.14   956.47   959.30   966.69   993.52
                             1016.53  1043.58  1108.16  1128.67  1163.91
                             1363.24  1372.84  1388.71  1404.75  1418.62
                             1436.06  1439.29  1493.39  1508.07  1554.26
                             1585.87  1660.92  1670.19  1729.93  1776.77
                             1840.74  1848.49  1979.94  1998.92  2027.82
                             2032.86  2039.91  2065.62  2075.64  2131.15
                             2144.74  2147.22  2162.81  2164.68  2166.95
                             2181.95  2366.56  2417.01  2458.54  4375.04
                             4401.23  4413.80  4463.90  4477.36  4512.01
                             4518.53  4541.20  4555.07  4568.04  4575.37
                             4626.18  4780.40  4787.67  5073.63  5152.88
                             5226.26

 Zero-point correction=                           0.254458 (Hartree/Particle)
 Thermal correction to Energy=                    0.272632
 Thermal correction to Enthalpy=                  0.273577
 Thermal correction to Gibbs Free Energy=         0.207197
 Sum of electronic and zero-point Energies=          -1350.604618
 Sum of electronic and thermal Energies=             -1350.586443
 Sum of electronic and thermal Enthalpies=           -1350.585499
 Sum of electronic and thermal Free Energies=        -1350.651878

                     E (Thermal)             CV                S
                      KCal/Mol        Cal/Mol-Kelvin    Cal/Mol-Kelvin
 Total                  171.079             64.208            139.707
 Electronic               0.000              0.000              0.000
 Translational            0.889              2.981             42.266
 Rotational               0.889              2.981             32.811
 Vibrational            169.302             58.246             64.630
 Vibration     1          0.594              1.984              5.776
 Vibration     2          0.594              1.981              5.228
 Vibration     3          0.597              1.974              4.475
 Vibration     4          0.597              1.972              4.357
 Vibration     5          0.601              1.959              3.761
 Vibration     6          0.603              1.951              3.497
 Vibration     7          0.608              1.937              3.174
 Vibration     8          0.608              1.935              3.143
 Vibration     9          0.611              1.927              3.008
 Vibration    10          0.620              1.897              2.606
 Vibration    11          0.631              1.863              2.297
 Vibration    12          0.633              1.854              2.227
 Vibration    13          0.641              1.831              2.078
 Vibration    14          0.645              1.817              1.992
 Vibration    15          0.659              1.773              1.775
 Vibration    16          0.669              1.745              1.657
 Vibration    17          0.674              1.727              1.591
 Vibration    18          0.708              1.630              1.297
 Vibration    19          0.718              1.601              1.225
 Vibration    20          0.728              1.573              1.162
 Vibration    21          0.736              1.551              1.115
 Vibration    22          0.768              1.466              0.955
 Vibration    23          0.882              1.190              0.594
 Vibration    24          0.885              1.183              0.587
 Vibration    25          0.921              1.106              0.513
 Vibration    26          0.936              1.077              0.487

 Optimization completed.
    -- Stationary point found.
 Normal termination of Gaussian 09 at Fri Feb 12 10:57:01 2021.
