 Gaussian 09, Revision E.01,
 Gaussian 09:  EM64L-G09RevE.01 30-Nov-2015

 -----------------------------------------------------
 # opt=(tight,modredundant) freq b3lyp/6-31g(d) nosymm
 -----------------------------------------------------

 -------------------
 Title Card Required
 -------------------
 Symbolic Z-matrix:
 Charge =  1 Multiplicity = 1

 SCF Done:  E(RB3LYP) =  -1236.40813001     A.U. after   15 cycles
 SCF Done:  E(RB3LYP) =  -1236.40980080     A.U. after   13 cycles
 SCF Done:  E(RB3LYP) =  -1236.40898864     A.U. after   15 cycles
 SCF Done:  E(RB3LYP) =  -1236.40986814     A.U. after   11 cycles
 SCF Done:  E(RB3LYP) =  -1236.40995796     A.U. after   13 cycles
 SCF Done:  E(RB3LYP) =  -1236.41058470     A.U. after   12 cycles
 SCF Done:  E(RB3LYP) =  -1236.41062045     A.U. after   15 cycles
 SCF Done:  E(RB3LYP) =  -1236.41091692     A.U. after   12 cycles
 SCF Done:  E(RB3LYP) =  -1236.41096409     A.U. after   11 cycles
 SCF Done:  E(RB3LYP) =  -1236.41099532     A.U. after   11 cycles
 SCF Done:  E(RB3LYP) =  -1236.41101701     A.U. after    6 cycles
 SCF Done:  E(RB3LYP) =  -1236.41101701     A.U. after    6 cycles
 SCF Done:  E(RB3LYP) =  -1236.41101701     A.U. after    5 cycles
 SCF Done:  E(RB3LYP) =  -1236.41101701     A.U. after    4 cycles
 SCF Done:  E(RB3LYP) =  -1236.41101701     A.U. after    4 cycles
 SCF Done:  E(RB3LYP) =  -1236.41101701     A.U. after    4 cycles
 SCF Done:  E(RB3LYP) =  -1236.41101701     A.U. after    4 cycles
 SCF Done:  E(RB3LYP) =  -1236.41101701     A.U. after    4 cycles
 SCF Done:  E(RB3LYP) =  -1236.41101701     A.U. after    3 cycles
 Optimization completed.
    -- Stationary point found.
 Normal termination of Gaussian 09 at Sun Apr  4 12:40:54 2021.

 --------------------------------------------------------------------
 #N Geom=AllCheck Guess=TCheck SCRF=Check GenChk RB3LYP/6-31G(d) Freq
 --------------------------------------------------------------------

 Structure from the checkpoint file:  "/localscratch/enas93.65576202.0/Gau-182737.chk"
 -------------------
 Title Card Required
 -------------------
 Charge =  1 Multiplicity = 1

                          Input orientation:
 ---------------------------------------------------------------------
 Center     Atomic      Atomic             Coordinates (Angstroms)
 Number     Number       Type             X           Y           Z
 ---------------------------------------------------------------------
      1          6           0        0.120643    0.086283    0.205871
      2          6           0        2.057609   -1.935613   -0.265747
      3          6           0        2.411533   -0.665911    0.090595
      4          7           0        1.488788    0.291510    0.310602
      5          1           0        2.799056   -2.703185   -0.442045
      6          1           0        3.445032   -0.361042    0.215503
      7          8           0       -0.702005    0.945785    0.411855
      8          7           0       -0.241987   -1.244551   -0.169044
      9          6           0        0.674817   -2.224166   -0.397337
     10          7           0        0.251256   -3.445702   -0.742331
     11          1           0       -0.726472   -3.682054   -0.838645
     12          1           0        0.923309   -4.181174   -0.911906
     13          1           0        1.798620    1.248980    0.585027
     14         16           0       -4.855049   -2.968259   -0.752451
     15          6           0       -5.906893   -3.094961   -2.241174
     16          1           0       -6.168535   -4.136414   -2.448204
     17          1           0       -6.816297   -2.499233   -2.123664
     18          1           0       -5.332608   -2.699086   -3.082593
     19          6           0       -5.988551   -3.658370    0.503832
     20          1           0       -6.896390   -3.053518    0.579159
     21          1           0       -6.250020   -4.693939    0.268810
     22          1           0       -5.467729   -3.632810    1.464370
     23          6           0       -1.682009   -1.530110   -0.296805
     24          1           0       -1.978820   -2.307609    0.411952
     25          1           0       -1.917771   -1.839812   -1.318304
     26          1           0       -2.220847   -0.613922   -0.068383
     27          7           0        3.596578    4.871396    2.633368
     28          1           0        4.335468    4.173446    2.563931
     29          6           0        2.965775    5.054738    1.343091
     30          1           0        2.134613    5.763331    1.472995
     31          6           0        3.972115    5.660170    0.343820
     32          6           0        2.369544    3.769740    0.748100
     33          1           0        4.810404    4.973441    0.181089
     34          1           0        3.518538    5.876735   -0.629424
     35          1           0        4.365222    6.588989    0.762916
     36          8           0        2.648852    2.651292    1.152970
     37          8           0        1.517819    3.890106   -0.283486
     38          1           0        2.929278    4.516160    3.315168
     39          1           0        1.354031    4.825935   -0.495240
 ---------------------------------------------------------------------

 SCF Done:  E(RB3LYP) =  -1236.41101701     A.U. after    1 cycles

 Alpha  occ. eigenvalues --  -88.95440 -19.31484 -19.26474 -19.26340 -14.55531
 Alpha  occ. eigenvalues --  -14.53692 -14.52924 -14.41004 -10.47264 -10.46429
 Alpha  occ. eigenvalues --  -10.43557 -10.40765 -10.35530 -10.34978 -10.33658
 Alpha  occ. eigenvalues --  -10.28749 -10.28739 -10.28217  -8.01535  -5.98060
 Alpha  occ. eigenvalues --   -5.97699  -5.96990  -1.22206  -1.21297  -1.15343
 Alpha  occ. eigenvalues --   -1.13819  -1.10642  -1.06844  -0.98964  -0.94403
 Alpha  occ. eigenvalues --   -0.87842  -0.87331  -0.84721  -0.82926  -0.80214
 Alpha  occ. eigenvalues --   -0.78257  -0.75869  -0.74006  -0.72266  -0.70750
 Alpha  occ. eigenvalues --   -0.69926  -0.67832  -0.66016  -0.63586  -0.63473
 Alpha  occ. eigenvalues --   -0.62551  -0.59955  -0.59367  -0.57908  -0.56955
 Alpha  occ. eigenvalues --   -0.56548  -0.55468  -0.54949  -0.53989  -0.53338
 Alpha  occ. eigenvalues --   -0.52871  -0.51854  -0.51526  -0.51328  -0.50235
 Alpha  occ. eigenvalues --   -0.49102  -0.48584  -0.48172  -0.47789  -0.45782
 Alpha  occ. eigenvalues --   -0.44429  -0.43652  -0.43003  -0.41836  -0.40073
 Alpha  occ. eigenvalues --   -0.39672  -0.38404  -0.33726  -0.30395
 Alpha virt. eigenvalues --   -0.19304  -0.13310  -0.10974  -0.07146  -0.05357
 Alpha virt. eigenvalues --   -0.05015  -0.04974  -0.02680  -0.02082  -0.00716
 Alpha virt. eigenvalues --   -0.00121   0.01295   0.01854   0.02050   0.03492

 Mulliken charges:
               1
     1  C    0.797056
     2  C   -0.236880
     3  C    0.144672
     4  N   -0.657082
     5  H    0.196003
     6  H    0.229377
     7  O   -0.448153
     8  N   -0.554335
     9  C    0.676196
    10  N   -0.779401
    11  H    0.396836
    12  H    0.391119
    13  H    0.433964
    14  S    0.026706
    15  C   -0.577444
    16  H    0.190290
    17  H    0.194896
    18  H    0.183729
    19  C   -0.577193
    20  H    0.194935
    21  H    0.190301
    22  H    0.184033
    23  C   -0.380035
    24  H    0.208443
    25  H    0.207900
    26  H    0.260759
    27  N   -0.675078
    28  H    0.313774
    29  C   -0.102080
    30  H    0.171527
    31  C   -0.448161
    32  C    0.617702
    33  H    0.168323
    34  H    0.148110
    35  H    0.205993
    36  O   -0.501147
    37  O   -0.549268
    38  H    0.316715
    39  H    0.436898
 Sum of Mulliken charges =   1.00000

 Dipole moment (field-independent basis, Debye):
    X=              2.6644    Y=             -4.3203    Z=             -2.0546  Tot=              5.4759
 Quadrupole moment (field-independent basis, Debye-Ang):
   XX=            -63.8454   YY=            -40.8040   ZZ=           -107.7395
   XY=             24.8588   XZ=              3.5466   YZ=              5.6493

  Exact polarizability: 171.602  17.251 183.840   9.348  12.517 122.406
 Approx polarizability: 236.661  -1.184 267.453  11.330  17.908 178.053

 ******    1 imaginary frequencies (negative Signs) ******

                      1                      2                      3
                      A                      A                      A
 Frequencies --    -19.0502                 5.3492                 9.2988
 Red. masses --      5.6990                 3.7000                 5.0618
 Frc consts  --      0.0012                 0.0001                 0.0003
 IR Inten    --      4.6083                 0.3798                 1.3350

                      4                      5                      6
                      A                      A                      A
 Frequencies --     15.5330                17.8362                24.0579
 Red. masses --      3.9447                 4.1525                 3.5594
 Frc consts  --      0.0006                 0.0008                 0.0012
 IR Inten    --      1.3949                 3.0659                 3.7828

                      7                      8                      9
                      A                      A                      A
 Frequencies --     28.3033                37.4426                44.2495
 Red. masses --      3.3515                 3.7812                 4.3085
 Frc consts  --      0.0016                 0.0031                 0.0050
 IR Inten    --      1.8205                 1.7042                 2.7669

                     10                     11                     12
                      A                      A                      A
 Frequencies --     50.2712                71.8978                87.3550
 Red. masses --      4.8034                 6.2477                 7.5982
 Frc consts  --      0.0072                 0.0190                 0.0342
 IR Inten    --      1.0495                 0.5766                 3.5546

                     13                     14                     15
                      A                      A                      A
 Frequencies --    111.7626               114.5454               177.9282
 Red. masses --      5.7873                 3.8332                 1.0366
 Frc consts  --      0.0426                 0.0296                 0.0193
 IR Inten    --     14.2923                 0.6474                 0.0039

                     16                     17                     18
                      A                      A                      A
 Frequencies --    178.6345               189.3274               218.6852
 Red. masses --      1.1091                 3.5836                 1.3220
 Frc consts  --      0.0209                 0.0757                 0.0372
 IR Inten    --      1.0778                 1.2018                 5.4409

                     19                     20                     21
                      A                      A                      A
 Frequencies --    219.3031               232.3106               251.1895
 Red. masses --      1.0915                 1.3509                 2.3772
 Frc consts  --      0.0309                 0.0430                 0.0884
 IR Inten    --      2.8478                55.9336                12.6005

                     22                     23                     24
                      A                      A                      A
 Frequencies --    257.1469               262.3401               330.4670
 Red. masses --      3.1184                 2.5729                 3.3347
 Frc consts  --      0.1215                 0.1043                 0.2146
 IR Inten    --      3.4142                 0.1436                40.5142

                     25                     26                     27
                      A                      A                      A
 Frequencies --    382.2559               383.3658               388.5607
 Red. masses --      2.9008                 3.0768                 4.2555
 Frc consts  --      0.2497                 0.2664                 0.3785
 IR Inten    --      1.1501                12.2720                17.6466

                     28                     29                     30
                      A                      A                      A
 Frequencies --    406.0449               447.3882               497.7403
 Red. masses --      1.1539                 2.7604                 3.1432
 Frc consts  --      0.1121                 0.3255                 0.4588
 IR Inten    --    226.1235                 0.0749                 2.4270

                     31                     32                     33
                      A                      A                      A
 Frequencies --    508.7003               532.7957               539.4521
 Red. masses --      6.1848                 1.1353                 1.1844
 Frc consts  --      0.9430                 0.1899                 0.2031
 IR Inten    --     23.7769                 0.8236                94.5572

                     34                     35                     36
                      A                      A                      A
 Frequencies --    549.8293               575.6468               649.5739
 Red. masses --      5.1478                 5.0297                 4.5859
 Frc consts  --      0.9169                 0.9820                 1.1401
 IR Inten    --     10.9790                32.6382                25.2512

                     37                     38                     39
                      A                      A                      A
 Frequencies --    682.7228               706.1494               716.2694
 Red. masses --      5.1215                 3.5010                 5.5651
 Frc consts  --      1.4065                 1.0286                 1.6822
 IR Inten    --      6.8272                 3.1981                 9.5329

                     40                     41                     42
                      A                      A                      A
 Frequencies --    736.8674               743.2022               753.4288
 Red. masses --      6.8336                 4.3529                 8.4322
 Frc consts  --      2.1861                 1.4166                 2.8202
 IR Inten    --      1.0648                 0.8266                18.8784

                     43                     44                     45
                      A                      A                      A
 Frequencies --    785.4124               808.5060               856.1371
 Red. masses --      1.5486                 3.3850                 5.2659
 Frc consts  --      0.5628                 1.3037                 2.2741
 IR Inten    --     46.7171                 9.3768                18.4843

                     46                     47                     48
                      A                      A                      A
 Frequencies --    890.0001               926.8059               933.6325
 Red. masses --      1.5693                 2.1344                 1.1671
 Frc consts  --      0.7324                 1.0802                 0.5994
 IR Inten    --    223.7515                 1.9900                 0.4307

                     49                     50                     51
                      A                      A                      A
 Frequencies --    963.3578               975.8063               981.0192
 Red. masses --      1.2463                 1.1562                 2.1293
 Frc consts  --      0.6815                 0.6486                 1.2074
 IR Inten    --     36.7160                 0.0093                19.8035

                     52                     53                     54
                      A                      A                      A
 Frequencies --   1009.4798              1024.2797              1027.1435
 Red. masses --      1.2111                 1.1749                 1.3853
 Frc consts  --      0.7272                 0.7262                 0.8611
 IR Inten    --      4.6434                19.6280                 0.5653

                     55                     56                     57
                      A                      A                      A
 Frequencies --   1057.6849              1072.7025              1087.1911
 Red. masses --      1.6726                 1.3662                 1.6035
 Frc consts  --      1.1024                 0.9262                 1.1167
 IR Inten    --      4.0682                26.3104                56.4935

                     58                     59                     60
                      A                      A                      A
 Frequencies --   1138.1475              1149.3088              1170.6225
 Red. masses --      3.2009                 1.3047                 1.6100
 Frc consts  --      2.4430                 1.0154                 1.2999
 IR Inten    --      0.4075                 0.0042                 9.1032

                     61                     62                     63
                      A                      A                      A
 Frequencies --   1179.7807              1198.0692              1199.5248
 Red. masses --      2.2850                 1.8999                 2.8322
 Frc consts  --      1.8739                 1.6067                 2.4010
 IR Inten    --     12.4872                 5.1509                11.1639

                     64                     65                     66
                      A                      A                      A
 Frequencies --   1269.1334              1286.2096              1298.4662
 Red. masses --      2.5902                 1.6470                 1.5688
 Frc consts  --      2.4581                 1.6053                 1.5584
 IR Inten    --     15.9653                99.9469               141.2734

                     67                     68                     69
                      A                      A                      A
 Frequencies --   1309.8684              1359.9114              1380.3113
 Red. masses --      1.5031                 2.2916                 1.1527
 Frc consts  --      1.5194                 2.4969                 1.2940
 IR Inten    --    117.4311               145.1168                 3.7337

                     70                     71                     72
                      A                      A                      A
 Frequencies --   1405.5843              1411.6286              1428.2650
 Red. masses --      1.1573                 1.8326                 1.2331
 Frc consts  --      1.3472                 2.1516                 1.4821
 IR Inten    --      8.6869                22.9855                 1.0666

                     73                     74                     75
                      A                      A                      A
 Frequencies --   1440.1530              1442.9613              1492.8434
 Red. masses --      1.2180                 1.3199                 1.0504
 Frc consts  --      1.4884                 1.6192                 1.3792
 IR Inten    --      2.0060                 3.4277                 0.0001

                     76                     77                     78
                      A                      A                      A
 Frequencies --   1502.1300              1508.6110              1510.4251
 Red. masses --      1.0518                 1.0573                 1.0797
 Frc consts  --      1.3983                 1.4178                 1.4513
 IR Inten    --     15.5234                21.2680                 8.3339

                     79                     80                     81
                      A                      A                      A
 Frequencies --   1513.7165              1517.2676              1528.9274
 Red. masses --      1.0491                 1.0486                 1.0506
 Frc consts  --      1.4163                 1.4223                 1.4469
 IR Inten    --      7.8446                 0.0362                13.2864

                     82                     83                     84
                      A                      A                      A
 Frequencies --   1535.5124              1550.3070              1582.0222
 Red. masses --      1.0411                 2.7712                 1.9881
 Frc consts  --      1.4463                 3.9243                 2.9317
 IR Inten    --     14.2905               105.2125                64.8295

                     85                     86                     87
                      A                      A                      A
 Frequencies --   1625.5679              1681.8578              1707.3889
 Red. masses --      2.9206                 2.8927                 1.0920
 Frc consts  --      4.5471                 4.8210                 1.8756
 IR Inten    --    169.2107               133.5141                21.6794

                     88                     89                     90
                      A                      A                      A
 Frequencies --   1709.5540              1803.2324              1863.9072
 Red. masses --      1.7611                 9.1563                 8.8969
 Frc consts  --      3.0325                17.5417                18.2111
 IR Inten    --    647.7575               372.1703               454.0455

                     91                     92                     93
                      A                      A                      A
 Frequencies --   3034.3843              3061.5754              3064.4660
 Red. masses --      1.0841                 1.0371                 1.0299
 Frc consts  --      5.8813                 5.7272                 5.6987
 IR Inten    --     14.7698                16.1734                28.8777

                     94                     95                     96
                      A                      A                      A
 Frequencies --   3067.2841              3084.7626              3104.4961
 Red. masses --      1.0300                 1.0363                 1.0919
 Frc consts  --      5.7097                 5.8102                 6.2001
 IR Inten    --     21.7603                31.7843              2577.3211

                     97                     98                     99
                      A                      A                      A
 Frequencies --   3126.5866              3147.3872              3152.9081
 Red. masses --      1.1029                 1.1082                 1.1085
 Frc consts  --      6.3523                 6.4677                 6.4924
 IR Inten    --     22.8573                17.1535                 0.0213

                    100                    101                    102
                      A                      A                      A
 Frequencies --   3158.8138              3160.0717              3161.1133
 Red. masses --      1.1080                 1.1048                 1.1043
 Frc consts  --      6.5140                 6.5000                 6.5014
 IR Inten    --      2.8169                 9.6658                 3.4606

                    103                    104                    105
                      A                      A                      A
 Frequencies --   3163.1319              3224.1410              3244.2929
 Red. masses --      1.1016                 1.0999                 1.0927
 Frc consts  --      6.4941                 6.7367                 6.7764
 IR Inten    --      4.5039                 7.0346                 0.2888

                    106                    107                    108
                      A                      A                      A
 Frequencies --   3262.8987              3483.8254              3567.1936
 Red. masses --      1.0973                 1.0499                 1.0928
 Frc consts  --      6.8828                 7.5079                 8.1932
 IR Inten    --      3.6983                 1.4067                 2.0663

                    109                    110                    111
                      A                      A                      A
 Frequencies --   3599.0397              3706.1954              3716.4966
 Red. masses --      1.0472                 1.1057                 1.0661
 Frc consts  --      7.9917                 8.9480                 8.6757
 IR Inten    --    181.7630               109.4612                62.8154

 - Thermochemistry -
 -------------------
 Temperature   298.150 Kelvin.  Pressure   1.00000 Atm.
 Atom     1 has atomic number  6 and mass  12.00000

 Molecular mass:   277.13344 amu.
 Principal axes and moments of inertia in atomic units:
                           1         2         3
     Eigenvalues --  2899.68391********************
           X            0.70302   0.70802  -0.06685
           Y            0.69071  -0.70216  -0.17289
           Z            0.16935  -0.07537   0.98267
 This molecule is an asymmetric top.
 Rotational symmetry number  1.
 Warning -- assumption of classical behavior for rotation
           may cause significant error
 Rotational temperatures (Kelvin)      0.02987     0.00463     0.00421
 Rotational constants (GHZ):           0.62239     0.09642     0.08779
    1 imaginary frequencies ignored.
 Zero-point vibrational energy     858480.1 (Joules/Mol)
                                  205.18167 (Kcal/Mol)
 Warning -- explicit consideration of  34 degrees of freedom as
           vibrations may cause significant error
 Vibrational temperatures:      7.70    13.38    22.35    25.66    34.61
          (Kelvin)             40.72    53.87    63.67    72.33   103.44
                              125.68   160.80   164.81   256.00   257.01
                              272.40   314.64   315.53   334.24   361.41
                              369.98   377.45   475.47   549.98   551.58
                              559.05   584.21   643.69   716.14   731.91
                              766.57   776.15   791.08   828.23   934.59
                              982.28  1015.99  1030.55  1060.19  1069.30
                             1084.01  1130.03  1163.26  1231.79  1280.51
                             1333.47  1343.29  1386.06  1403.97  1411.47
                             1452.41  1473.71  1477.83  1521.77  1543.38
                             1564.22  1637.54  1653.60  1684.26  1697.44
                             1723.75  1725.85  1826.00  1850.57  1868.20
                             1884.61  1956.61  1985.96  2022.32  2031.02
                             2054.95  2072.06  2076.10  2147.87  2161.23
                             2170.55  2173.16  2177.90  2183.01  2199.78
                             2209.26  2230.54  2276.17  2338.83  2419.82
                             2456.55  2459.66  2594.45  2681.74  4365.80
                             4404.92  4409.08  4413.13  4438.28  4466.67
                             4498.46  4528.38  4536.33  4544.82  4546.63
                             4548.13  4551.04  4638.81  4667.81  4694.58
                             5012.44  5132.39  5178.21  5332.38  5347.20

 Zero-point correction=                           0.326978 (Hartree/Particle)
 Thermal correction to Energy=                    0.350375
 Thermal correction to Enthalpy=                  0.351319
 Thermal correction to Gibbs Free Energy=         0.264354
 Sum of electronic and zero-point Energies=          -1236.084039
 Sum of electronic and thermal Energies=             -1236.060642
 Sum of electronic and thermal Enthalpies=           -1236.059698
 Sum of electronic and thermal Free Energies=        -1236.146663

                     E (Thermal)             CV                S
                      KCal/Mol        Cal/Mol-Kelvin    Cal/Mol-Kelvin
 Total                  219.864             79.605            183.035
 Electronic               0.000              0.000              0.000
 Translational            0.889              2.981             42.756
 Rotational               0.889              2.981             35.366
 Vibrational            218.086             73.643            104.912
 Vibration     1          0.593              1.987              9.254
 Vibration     2          0.593              1.987              8.156
 Vibration     3          0.593              1.986              7.136
 Vibration     4          0.593              1.986              6.862
 Vibration     5          0.593              1.985              6.267
 Vibration     6          0.593              1.984              5.945
 Vibration     7          0.594              1.982              5.390
 Vibration     8          0.595              1.980              5.059
 Vibration     9          0.595              1.977              4.807
 Vibration    10          0.598              1.967              4.101
 Vibration    11          0.601              1.958              3.718
 Vibration    12          0.607              1.940              3.238
 Vibration    13          0.607              1.937              3.190
 Vibration    14          0.628              1.869              2.350
 Vibration    15          0.629              1.869              2.343
 Vibration    16          0.633              1.855              2.234
 Vibration    17          0.646              1.813              1.970
 Vibration    18          0.647              1.812              1.965
 Vibration    19          0.653              1.792              1.861
 Vibration    20          0.663              1.761              1.722
 Vibration    21          0.667              1.751              1.681
 Vibration    22          0.670              1.742              1.646
 Vibration    23          0.713              1.615              1.258
 Vibration    24          0.752              1.508              1.030
 Vibration    25          0.753              1.506              1.026
 Vibration    26          0.757              1.495              1.006
 Vibration    27          0.771              1.457              0.941
 Vibration    28          0.807              1.367              0.804
 Vibration    29          0.853              1.255              0.664
 Vibration    30          0.864              1.231              0.637
 Vibration    31          0.888              1.177              0.581
 Vibration    32          0.895              1.163              0.566
 Vibration    33          0.905              1.140              0.545
 Vibration    34          0.932              1.084              0.493

 Normal termination of Gaussian 09 at Sun Apr  4 12:44:39 2021.
