 Gaussian 09, Revision E.01,
 Gaussian 09:  EM64L-G09RevE.01 30-Nov-2015

 --------------------------------
 # opt freq b3lyp/6-31g(d) nosymm
 --------------------------------

 -------------------
 Title Card Required
 -------------------
 Symbolic Z-matrix:
 Charge =  1 Multiplicity = 1

 SCF Done:  E(RB3LYP) =  -912.637221493     A.U. after   15 cycles
 SCF Done:  E(RB3LYP) =  -912.641724818     A.U. after   14 cycles
 SCF Done:  E(RB3LYP) =  -912.577056719     A.U. after   16 cycles
 SCF Done:  E(RB3LYP) =  -912.641792022     A.U. after   11 cycles
 SCF Done:  E(RB3LYP) =  -912.621237196     A.U. after   15 cycles
 SCF Done:  E(RB3LYP) =  -912.644316220     A.U. after   12 cycles
 SCF Done:  E(RB3LYP) =  -912.557613303     A.U. after   14 cycles
 SCF Done:  E(RB3LYP) =  -912.644354168     A.U. after    9 cycles
 SCF Done:  E(RB3LYP) =  -912.641436383     A.U. after   12 cycles
 SCF Done:  E(RB3LYP) =  -912.644490406     A.U. after   11 cycles
 SCF Done:  E(RB3LYP) =  -912.645904221     A.U. after   11 cycles
 SCF Done:  E(RB3LYP) =  -912.645918284     A.U. after   11 cycles
 SCF Done:  E(RB3LYP) =  -912.645940000     A.U. after   11 cycles
 SCF Done:  E(RB3LYP) =  -912.645961598     A.U. after   11 cycles
 SCF Done:  E(RB3LYP) =  -912.645971222     A.U. after   11 cycles
 SCF Done:  E(RB3LYP) =  -912.645971859     A.U. after   10 cycles
 SCF Done:  E(RB3LYP) =  -912.645971905     A.U. after   10 cycles
 SCF Done:  E(RB3LYP) =  -912.645972524     A.U. after   10 cycles
 SCF Done:  E(RB3LYP) =  -912.645972541     A.U. after    7 cycles
 Optimization completed.
    -- Stationary point found.
 Normal termination of Gaussian 09 at Thu Oct  8 00:18:12 2020.

 --------------------------------------------------------------------
 #N Geom=AllCheck Guess=TCheck SCRF=Check GenChk RB3LYP/6-31G(d) Freq
 --------------------------------------------------------------------

 Structure from the checkpoint file:  "/localscratch/enas93.52313799.0/Gau-22715.chk"
 -------------------
 Title Card Required
 -------------------
 Charge =  1 Multiplicity = 1

                          Input orientation:
 ---------------------------------------------------------------------
 Center     Atomic      Atomic             Coordinates (Angstroms)
 Number     Number       Type             X           Y           Z
 ---------------------------------------------------------------------
      1          6           0       -0.524655    0.925507    0.526708
      2          6           0       -2.969129    1.976901   -0.332027
      3          6           0       -2.325612    2.540673    0.722380
      4          7           0       -1.136222    2.029776    1.141569
      5          1           0       -3.916544    2.362548   -0.686567
      6          1           0       -2.708782    3.395845    1.267938
      7          8           0        0.562984    0.531453    0.978956
      8          7           0       -1.160821    0.353663   -0.528146
      9          6           0       -2.327829    0.847281   -0.946664
     10          7           0       -2.913943    0.240858   -1.997879
     11          1           0       -2.459509   -0.553299   -2.424324
     12          1           0       -3.797196    0.552143   -2.371668
     13          1           0       -0.637901    2.433557    1.925108
     14         16           0        2.801430   -2.086772    0.108638
     15          6           0        3.373056   -0.361732   -0.050782
     16          1           0        3.726143   -0.234848   -1.076826
     17          1           0        2.539968    0.305404    0.186796
     18          1           0        4.209818   -0.234901    0.640076
     19          6           0        1.340106   -2.112958   -0.982063
     20          1           0        0.654644   -1.301064   -0.717280
     21          1           0        1.708083   -2.012477   -2.006097
     22          1           0        0.871701   -3.092885   -0.861825
     23          6           0        2.048383   -2.096783    1.770247
     24          1           0        1.569923   -3.070393    1.899427
     25          1           0        2.861860   -1.992534    2.491978
     26          1           0        1.334505   -1.271271    1.834898
 ---------------------------------------------------------------------

 SCF Done:  E(RB3LYP) =  -912.645972541     A.U. after    1 cycles

 Alpha  occ. eigenvalues --  -89.11503 -19.22374 -14.50618 -14.47815 -14.43169
 Alpha  occ. eigenvalues --  -10.42533 -10.39990 -10.37086 -10.36293 -10.36255
 Alpha  occ. eigenvalues --  -10.36253 -10.31157  -8.17343  -6.13606  -6.13603
 Alpha  occ. eigenvalues --   -6.13001  -1.15890  -1.08651  -1.06129  -1.01587
 Alpha  occ. eigenvalues --   -0.98878  -0.89638  -0.86810  -0.86797  -0.78196
 Alpha  occ. eigenvalues --   -0.76801  -0.75829  -0.68314  -0.67702  -0.64557
 Alpha  occ. eigenvalues --   -0.61997  -0.61102  -0.61079  -0.60916  -0.57316
 Alpha  occ. eigenvalues --   -0.57066  -0.56248  -0.55697  -0.55460  -0.54419
 Alpha  occ. eigenvalues --   -0.53113  -0.53106  -0.52634  -0.49308  -0.45979
 Alpha  occ. eigenvalues --   -0.45973  -0.39107  -0.37968  -0.36571  -0.34908
 Alpha virt. eigenvalues --   -0.14294  -0.12697  -0.12678  -0.09833  -0.07892
 Alpha virt. eigenvalues --   -0.05099  -0.03743  -0.02439  -0.01458  -0.01312
 Alpha virt. eigenvalues --    0.01207   0.01425   0.01462   0.02541   0.02868

 Mulliken charges:
               1
     1  C    0.731898
     2  C   -0.212492
     3  C    0.125863
     4  N   -0.610568
     5  H    0.174660
     6  H    0.206463
     7  O   -0.586836
     8  N   -0.596670
     9  C    0.566253
    10  N   -0.762807
    11  H    0.359404
    12  H    0.365610
    13  H    0.363160
    14  S    0.540932
    15  C   -0.631001
    16  H    0.230126
    17  H    0.283591
    18  H    0.232408
    19  C   -0.639334
    20  H    0.287943
    21  H    0.227761
    22  H    0.227976
    23  C   -0.631090
    24  H    0.230264
    25  H    0.232385
    26  H    0.284100
 Sum of Mulliken charges =   1.00000

 Dipole moment (field-independent basis, Debye):
    X=              1.6423    Y=             -1.7612    Z=             -0.4262  Tot=              2.4455
 Quadrupole moment (field-independent basis, Debye-Ang):
   XX=            -30.5003   YY=            -49.6266   ZZ=            -59.5891
   XY=            -22.2355   XZ=              9.9152   YZ=              4.6244

  Exact polarizability: 129.202 -17.393 103.703  25.030  15.016 108.917
 Approx polarizability: 184.795 -12.272 148.654  46.075  28.669 173.762

                      1                      2                      3
                      A                      A                      A
 Frequencies --     13.4649                23.0494                37.9438
 Red. masses --      3.2640                 6.5221                 4.8368
 Frc consts  --      0.0003                 0.0020                 0.0041
 IR Inten    --      0.0441                 6.0857                 4.2518

                      4                      5                      6
                      A                      A                      A
 Frequencies --    101.6968               112.2106               128.6645
 Red. masses --      3.6866                 5.1144                 3.4710
 Frc consts  --      0.0225                 0.0379                 0.0339
 IR Inten    --      6.3917                15.8403                 3.4132

                      7                      8                      9
                      A                      A                      A
 Frequencies --    173.7766               206.0351               221.2614
 Red. masses --      4.8862                 2.7278                 1.4105
 Frc consts  --      0.0869                 0.0682                 0.0407
 IR Inten    --      6.0254                10.1294                13.8593

                     10                     11                     12
                      A                      A                      A
 Frequencies --    235.3561               238.2502               242.0152
 Red. masses --      1.2381                 1.2118                 1.2556
 Frc consts  --      0.0404                 0.0405                 0.0433
 IR Inten    --     18.2200               111.1577                96.4489

                     13                     14                     15
                      A                      A                      A
 Frequencies --    267.9498               277.1771               310.9370
 Red. masses --      1.8718                 1.6801                 2.7660
 Frc consts  --      0.0792                 0.0761                 0.1576
 IR Inten    --      0.3306                 0.3647                15.7279

                     16                     17                     18
                      A                      A                      A
 Frequencies --    360.5482               414.8555               537.1777
 Red. masses --      3.4480                 2.9361                 4.5785
 Frc consts  --      0.2641                 0.2977                 0.7784
 IR Inten    --      4.3052                10.8180                11.4795

                     19                     20                     21
                      A                      A                      A
 Frequencies --    550.2963               551.5729               589.7222
 Red. masses --      6.5404                 1.1129                 9.2515
 Frc consts  --      1.1669                 0.1995                 1.8956
 IR Inten    --      2.4822                 3.1115                 9.1480

                     22                     23                     24
                      A                      A                      A
 Frequencies --    627.0191               648.8606               702.6487
 Red. masses --      4.9490                 1.1969                 6.2481
 Frc consts  --      1.1464                 0.2969                 1.8175
 IR Inten    --      1.8258                74.8941                 0.9126

                     25                     26                     27
                      A                      A                      A
 Frequencies --    704.1464               735.3740               776.7862
 Red. masses --      6.1627                 2.2759                 8.9903
 Frc consts  --      1.8003                 0.7251                 3.1962
 IR Inten    --      0.8624                16.0855                20.2991

                     28                     29                     30
                      A                      A                      A
 Frequencies --    790.8703               791.0932               936.6165
 Red. masses --      2.0840                 5.7784                 1.1440
 Frc consts  --      0.7680                 2.1307                 0.5913
 IR Inten    --     38.0429                 6.2798                 0.0011

                     31                     32                     33
                      A                      A                      A
 Frequencies --    951.9533               970.6558               976.3249
 Red. masses --      2.8113                 1.2890                 1.1711
 Frc consts  --      1.5011                 0.7156                 0.6577
 IR Inten    --      1.5545                 0.1948                 3.3739

                     34                     35                     36
                      A                      A                      A
 Frequencies --    992.1051               996.5658              1089.6108
 Red. masses --      1.1671                 4.1064                 1.3067
 Frc consts  --      0.6768                 2.4029                 0.9141
 IR Inten    --      3.3751                 0.7050                 7.4901

                     37                     38                     39
                      A                      A                      A
 Frequencies --   1092.1407              1111.5746              1114.8169
 Red. masses --      1.3022                 1.4653                 1.9600
 Frc consts  --      0.9151                 1.0667                 1.4352
 IR Inten    --      6.2653                19.3683                53.0957

                     40                     41                     42
                      A                      A                      A
 Frequencies --   1137.9696              1235.4626              1307.1121
 Red. masses --      1.5086                 1.2267                 6.5539
 Frc consts  --      1.1510                 1.1032                 6.5974
 IR Inten    --      1.6589                56.1813                26.6396

                     43                     44                     45
                      A                      A                      A
 Frequencies --   1378.9367              1382.5232              1384.8986
 Red. masses --      1.1430                 1.1461                 1.7369
 Frc consts  --      1.2805                 1.2907                 1.9628
 IR Inten    --      1.2278                 5.1779                29.5741

                     46                     47                     48
                      A                      A                      A
 Frequencies --   1420.9096              1455.6110              1474.5929
 Red. masses --      1.1598                 2.5871                 1.0439
 Frc consts  --      1.3797                 3.2297                 1.3374
 IR Inten    --     52.2934                70.7552                 6.1205

                     49                     50                     51
                      A                      A                      A
 Frequencies --   1475.3408              1495.5388              1497.1006
 Red. masses --      1.0451                 1.0550                 1.0450
 Frc consts  --      1.3403                 1.3903                 1.3800
 IR Inten    --      6.8759                 0.2266                12.5209

                     52                     53                     54
                      A                      A                      A
 Frequencies --   1515.9508              1517.2038              1532.1249
 Red. masses --      1.0496                 1.0487                 2.6659
 Frc consts  --      1.4211                 1.4224                 3.6871
 IR Inten    --     15.0000                16.6868               186.3936

                     55                     56                     57
                      A                      A                      A
 Frequencies --   1573.0814              1666.4604              1706.5603
 Red. masses --      5.3420                 1.5077                 4.4832
 Frc consts  --      7.7886                 2.4669                 7.6928
 IR Inten    --    120.9327               197.4778               563.0724

                     58                     59                     60
                      A                      A                      A
 Frequencies --   1742.9264              3061.6875              3069.7923
 Red. masses --      6.4243                 1.0304                 1.0288
 Frc consts  --     11.4983                 5.6909                 5.7123
 IR Inten    --    856.1659                34.1715                 2.9676

                     61                     62                     63
                      A                      A                      A
 Frequencies --   3072.4573              3172.2440              3179.8542
 Red. masses --      1.0283                 1.1097                 1.1065
 Frc consts  --      5.7195                 6.5796                 6.5919
 IR Inten    --    104.8617                45.4752                 0.1808

                     64                     65                     66
                      A                      A                      A
 Frequencies --   3183.1226              3184.2819              3184.6524
 Red. masses --      1.1108                 1.1065                 1.1074
 Frc consts  --      6.6310                 6.6106                 6.6176
 IR Inten    --      5.5293                 0.7403                 1.2053

                     67                     68                     69
                      A                      A                      A
 Frequencies --   3186.1152              3237.3582              3251.9996
 Red. masses --      1.1118                 1.0901                 1.0997
 Frc consts  --      6.6499                 6.7313                 6.8522
 IR Inten    --    153.0368                 0.4540                 0.0453

                     70                     71                     72
                      A                      A                      A
 Frequencies --   3609.0304              3612.9006              3730.5692
 Red. masses --      1.0526                 1.0717                 1.1057
 Frc consts  --      8.0781                 8.2420                 9.0663
 IR Inten    --    195.4663                11.6298                63.3047

 - Thermochemistry -
 -------------------
 Temperature   298.150 Kelvin.  Pressure   1.00000 Atm.
 Atom     1 has atomic number  6 and mass  12.00000

 Molecular mass:   188.08576 amu.
 Principal axes and moments of inertia in atomic units:
                           1         2         3
     Eigenvalues --  1203.723084999.243505713.73838
           X            0.83147   0.27746  -0.48133
           Y           -0.54607   0.56776  -0.61601
           Z            0.10236   0.77503   0.62358
 This molecule is an asymmetric top.
 Rotational symmetry number  1.
 Warning -- assumption of classical behavior for rotation
           may cause significant error
 Rotational temperatures (Kelvin)      0.07195     0.01733     0.01516
 Rotational constants (GHZ):           1.49930     0.36100     0.31586
 Zero-point vibrational energy     569658.7 (Joules/Mol)
                                  136.15169 (Kcal/Mol)
 Warning -- explicit consideration of  21 degrees of freedom as
           vibrations may cause significant error
 Vibrational temperatures:     19.37    33.16    54.59   146.32   161.45
          (Kelvin)            185.12   250.03   296.44   318.35   338.62
                              342.79   348.21   385.52   398.80   447.37
                              518.75   596.88   772.88   791.75   793.59
                              848.48   902.14   933.56  1010.95  1013.11
                             1058.04  1117.62  1137.88  1138.21  1347.58
                             1369.65  1396.56  1404.71  1427.42  1433.83
                             1567.70  1571.34  1599.31  1603.97  1637.28
                             1777.55  1880.64  1983.98  1989.14  1992.56
                             2044.37  2094.30  2121.61  2122.68  2151.74
                             2153.99  2181.11  2182.92  2204.38  2263.31
                             2397.66  2455.36  2507.68  4405.08  4416.74
                             4420.58  4564.15  4575.10  4579.80  4581.47
                             4582.00  4584.10  4657.83  4678.90  5192.58
                             5198.15  5367.45

 Zero-point correction=                           0.216972 (Hartree/Particle)
 Thermal correction to Energy=                    0.231816
 Thermal correction to Enthalpy=                  0.232760
 Thermal correction to Gibbs Free Energy=         0.172753
 Sum of electronic and zero-point Energies=           -912.429001
 Sum of electronic and thermal Energies=              -912.414157
 Sum of electronic and thermal Enthalpies=            -912.413213
 Sum of electronic and thermal Free Energies=         -912.473219

                     E (Thermal)             CV                S
                      KCal/Mol        Cal/Mol-Kelvin    Cal/Mol-Kelvin
 Total                  145.467             52.880            126.295
 Electronic               0.000              0.000              0.000
 Translational            0.889              2.981             41.601
 Rotational               0.889              2.981             31.909
 Vibrational            143.689             46.919             52.785
 Vibration     1          0.593              1.987              7.420
 Vibration     2          0.593              1.985              6.352
 Vibration     3          0.594              1.982              5.364
 Vibration     4          0.604              1.948              3.422
 Vibration     5          0.607              1.939              3.230
 Vibration     6          0.611              1.925              2.966
 Vibration     7          0.627              1.875              2.394
 Vibration     8          0.641              1.831              2.079
 Vibration     9          0.648              1.809              1.949
 Vibration    10          0.655              1.787              1.838
 Vibration    11          0.656              1.782              1.816
 Vibration    12          0.658              1.776              1.788
 Vibration    13          0.673              1.732              1.609
 Vibration    14          0.678              1.716              1.551
 Vibration    15          0.700              1.653              1.357
 Vibration    16          0.735              1.554              1.120
 Vibration    17          0.778              1.438              0.910
 Vibration    18          0.892              1.168              0.571
 Vibration    19          0.906              1.139              0.544
 Vibration    20          0.907              1.136              0.541
 Vibration    21          0.947              1.054              0.468

 Normal termination of Gaussian 09 at Thu Oct  8 00:22:15 2020.
