 Gaussian 09, Revision E.01,
 Gaussian 09:  EM64L-G09RevE.01 30-Nov-2015

 --------------------------------
 # opt freq b3lyp/6-31g(d) nosymm
 --------------------------------

 -------------------
 Title Card Required
 -------------------
 Symbolic Z-matrix:
 Charge =  1 Multiplicity = 1

 SCF Done:  E(RB3LYP) =  -912.605169667     A.U. after   16 cycles
 Optimization completed.
    -- Stationary point found.
 Normal termination of Gaussian 09 at Thu Oct  8 00:01:28 2020.

 --------------------------------------------------------------------
 #N Geom=AllCheck Guess=TCheck SCRF=Check GenChk RB3LYP/6-31G(d) Freq
 --------------------------------------------------------------------

 Structure from the checkpoint file:  "/localscratch/enas93.52313769.0/Gau-6867.chk"
 -------------------
 Title Card Required
 -------------------
 Charge =  1 Multiplicity = 1

                          Input orientation:
 ---------------------------------------------------------------------
 Center     Atomic      Atomic             Coordinates (Angstroms)
 Number     Number       Type             X           Y           Z
 ---------------------------------------------------------------------
      1          6           0       -0.705289    1.465521    0.789358
      2          6           0       -3.077944    1.616717   -0.721510
      3          6           0       -2.826766    2.526469    0.257288
      4          7           0       -1.683257    2.453955    0.984314
      5          1           0       -3.983837    1.658235   -1.312255
      6          1           0       -3.507427    3.334677    0.500871
      7          8           0        0.303621    1.449774    1.478115
      8          7           0       -0.969843    0.545085   -0.210796
      9          6           0       -2.090318    0.600709   -0.938701
     10          7           0       -2.288557   -0.323864   -1.896875
     11          1           0       -1.609342   -1.046751   -2.079277
     12          1           0       -3.120894   -0.310373   -2.467544
     13          1           0       -1.479693    3.123222    1.718130
     14         16           0        2.474362   -2.266306   -0.321806
     15          6           0        3.811926   -1.024148   -0.259181
     16          1           0        3.913493   -0.601385   -1.261344
     17          1           0        3.576234   -0.232299    0.456930
     18          1           0        4.747874   -1.516029    0.015775
     19          6           0        0.598650   -0.820380   -0.336640
     20          1           0        1.009399   -0.250011    0.484412
     21          1           0        0.801357   -0.526253   -1.355964
     22          1           0       -0.071363   -1.645350   -0.143079
     23          6           0        2.427702   -2.809134    1.421255
     24          1           0        1.632280   -3.552459    1.511931
     25          1           0        3.381069   -3.276197    1.679048
     26          1           0        2.227959   -1.965939    2.088170
 ---------------------------------------------------------------------

 SCF Done:  E(RB3LYP) =  -912.605169667     A.U. after    1 cycles

 Alpha  occ. eigenvalues --  -89.04115 -19.24603 -14.52923 -14.51351 -14.48812
 Alpha  occ. eigenvalues --  -10.45242 -10.43748 -10.39603 -10.38985 -10.34430
 Alpha  occ. eigenvalues --  -10.34383 -10.33614  -8.10194  -6.06595  -6.06269
 Alpha  occ. eigenvalues --   -6.05836  -1.18808  -1.12006  -1.09070  -1.02519
 Alpha  occ. eigenvalues --   -0.94987  -0.92298  -0.85291  -0.84186  -0.80955
 Alpha  occ. eigenvalues --   -0.79748  -0.74081  -0.71418  -0.70203  -0.67714
 Alpha  occ. eigenvalues --   -0.64044  -0.60424  -0.59506  -0.58565  -0.58533
 Alpha  occ. eigenvalues --   -0.57760  -0.57368  -0.56392  -0.55926  -0.54634
 Alpha  occ. eigenvalues --   -0.54232  -0.52526  -0.50633  -0.48889  -0.48406
 Alpha  occ. eigenvalues --   -0.45146  -0.40492  -0.40262  -0.37572  -0.37147
 Alpha virt. eigenvalues --   -0.17216  -0.15544  -0.11895  -0.10127  -0.07803
 Alpha virt. eigenvalues --   -0.06014  -0.04990  -0.03730  -0.01401  -0.00290
 Alpha virt. eigenvalues --   -0.00191   0.00761   0.01351   0.01558   0.02198

 Mulliken charges:
               1
     1  C    0.781413
     2  C   -0.227496
     3  C    0.141618
     4  N   -0.623119
     5  H    0.186820
     6  H    0.220847
     7  O   -0.510164
     8  N   -0.622727
     9  C    0.622731
    10  N   -0.772937
    11  H    0.366646
    12  H    0.379391
    13  H    0.380076
    14  S    0.250326
    15  C   -0.599913
    16  H    0.217979
    17  H    0.215884
    18  H    0.226540
    19  C   -0.418033
    20  H    0.271656
    21  H    0.228497
    22  H    0.225649
    23  C   -0.599465
    24  H    0.217020
    25  H    0.226906
    26  H    0.213854
 Sum of Mulliken charges =   1.00000

 Dipole moment (field-independent basis, Debye):
    X=             -2.3884    Y=             -0.6823    Z=             -2.1117  Tot=              3.2603
 Quadrupole moment (field-independent basis, Debye-Ang):
   XX=            -31.8361   YY=            -51.7334   ZZ=            -65.9561
   XY=            -23.4729   XZ=              8.5581   YZ=              1.4983

  Exact polarizability: 161.507 -45.183 128.685  20.838  15.277 101.614
 Approx polarizability: 222.253 -46.328 187.912  37.297  36.371 166.305

 ******    1 imaginary frequencies (negative Signs) ******

                      1                      2                      3
                      A                      A                      A
 Frequencies --   -449.2863                17.9314                35.5431
 Red. masses --     11.0829                 3.5421                 4.1647
 Frc consts  --      1.3181                 0.0007                 0.0031
 IR Inten    --   1211.6487                 2.7660                 1.0578

                      4                      5                      6
                      A                      A                      A
 Frequencies --     55.5276                81.5994               103.6983
 Red. masses --      3.8149                 3.1258                 4.6593
 Frc consts  --      0.0069                 0.0123                 0.0295
 IR Inten    --     10.1402                 0.8800                 1.7190

                      7                      8                      9
                      A                      A                      A
 Frequencies --    152.2918               163.4302               172.6067
 Red. masses --      2.1753                 1.2136                 1.2678
 Frc consts  --      0.0297                 0.0191                 0.0223
 IR Inten    --      9.4972                 0.5285                 1.8811

                     10                     11                     12
                      A                      A                      A
 Frequencies --    185.8273               192.9987               206.7678
 Red. masses --      1.5211                 3.0810                 3.2570
 Frc consts  --      0.0309                 0.0676                 0.0820
 IR Inten    --      1.4713                 0.6470                 0.2135

                     13                     14                     15
                      A                      A                      A
 Frequencies --    262.6653               282.1137               305.1074
 Red. masses --      2.6013                 1.2603                 3.2392
 Frc consts  --      0.1057                 0.0591                 0.1777
 IR Inten    --      1.7440               199.3896                42.5096

                     16                     17                     18
                      A                      A                      A
 Frequencies --    339.9387               386.5432               418.4955
 Red. masses --      3.5875                 3.7944                 2.6984
 Frc consts  --      0.2443                 0.3340                 0.2784
 IR Inten    --     11.7707                 7.2991                 3.8478

                     19                     20                     21
                      A                      A                      A
 Frequencies --    515.9802               542.8759               552.4960
 Red. masses --      1.1544                 6.0891                 5.1212
 Frc consts  --      0.1811                 1.0573                 0.9210
 IR Inten    --      0.7217                 8.3544                 3.4809

                     22                     23                     24
                      A                      A                      A
 Frequencies --    586.6331               652.6420               672.5139
 Red. masses --      8.5570                 1.2687                 5.3000
 Frc consts  --      1.7350                 0.3184                 1.4123
 IR Inten    --      4.8227                60.0405                 5.3665

                     25                     26                     27
                      A                      A                      A
 Frequencies --    727.0265               729.6995               765.9864
 Red. masses --      6.4559                 2.1807                11.5288
 Frc consts  --      2.0105                 0.6841                 3.9854
 IR Inten    --      2.3616                24.5417                46.4904

                     28                     29                     30
                      A                      A                      A
 Frequencies --    783.5659               783.9034               940.6913
 Red. masses --      6.8457                 1.7765                 1.1671
 Frc consts  --      2.4764                 0.6432                 0.6085
 IR Inten    --     15.8251                29.9900                 0.9625

                     31                     32                     33
                      A                      A                      A
 Frequencies --    950.1189               976.7337               979.3870
 Red. masses --      2.6869                 1.1582                 1.3024
 Frc consts  --      1.4291                 0.6510                 0.7360
 IR Inten    --     20.6736                 0.0411                 0.1425

                     34                     35                     36
                      A                      A                      A
 Frequencies --   1000.9167              1009.9561              1075.5189
 Red. masses --      3.1395                 1.2218                 1.0743
 Frc consts  --      1.8531                 0.7343                 0.7322
 IR Inten    --     10.4365                18.3270                 2.0772

                     37                     38                     39
                      A                      A                      A
 Frequencies --   1076.5068              1095.5491              1112.8167
 Red. masses --      1.2715                 1.1596                 1.8892
 Frc consts  --      0.8682                 0.8200                 1.3784
 IR Inten    --      8.1469               101.2384                40.9972

                     40                     41                     42
                      A                      A                      A
 Frequencies --   1144.2323              1176.4916              1245.9576
 Red. masses --      1.5065                 1.2102                 1.2244
 Frc consts  --      1.1621                 0.9870                 1.1199
 IR Inten    --      1.0071                12.1728                58.9263

                     43                     44                     45
                      A                      A                      A
 Frequencies --   1269.0995              1383.1032              1390.2944
 Red. masses --      5.8155                 1.1482                 1.6825
 Frc consts  --      5.5186                 1.2941                 1.9161
 IR Inten    --     17.1402                 0.2080                 9.6729

                     46                     47                     48
                      A                      A                      A
 Frequencies --   1408.3829              1415.3869              1429.7514
 Red. masses --      1.1520                 1.1089                 1.1030
 Frc consts  --      1.3463                 1.3088                 1.3284
 IR Inten    --      1.9553                 7.7448                 2.3003

                     49                     50                     51
                      A                      A                      A
 Frequencies --   1473.3652              1487.2081              1495.7179
 Red. masses --      2.4211                 1.0505                 1.0541
 Frc consts  --      3.0966                 1.3689                 1.3894
 IR Inten    --    109.8676                 0.1627                19.2736

                     52                     53                     54
                      A                      A                      A
 Frequencies --   1499.2135              1506.2746              1542.9304
 Red. masses --      1.0498                 1.0457                 2.9748
 Frc consts  --      1.3902                 1.3978                 4.1725
 IR Inten    --     27.4511                15.4748               175.1307

                     55                     56                     57
                      A                      A                      A
 Frequencies --   1578.4063              1681.8056              1704.2320
 Red. masses --      4.7586                 1.6598                 3.0929
 Frc consts  --      6.9849                 2.7661                 5.2926
 IR Inten    --    239.4847                16.1776               586.5274

                     58                     59                     60
                      A                      A                      A
 Frequencies --   1799.0149              3074.2339              3076.5807
 Red. masses --      8.6709                 1.0300                 1.0300
 Frc consts  --     16.5342                 5.7355                 5.7441
 IR Inten    --    389.3004                 4.7639                 3.2932

                     61                     62                     63
                      A                      A                      A
 Frequencies --   3149.4969              3167.6557              3170.5896
 Red. masses --      1.0091                 1.1072                 1.1081
 Frc consts  --      5.8976                 6.5454                 6.5634
 IR Inten    --     20.7722                 1.2273                 0.0450

                     64                     65                     66
                      A                      A                      A
 Frequencies --   3176.8411              3177.6031              3241.9065
 Red. masses --      1.1067                 1.1058                 1.0910
 Frc consts  --      6.5809                 6.5783                 6.7560
 IR Inten    --      0.2995                 0.0217                 0.7387

                     67                     68                     69
                      A                      A                      A
 Frequencies --   3256.2325              3346.6724              3355.2203
 Red. masses --      1.0991                 1.1261                 1.1240
 Frc consts  --      6.8664                 7.4309                 7.4551
 IR Inten    --      0.4968                41.5531                 1.7943

                     70                     71                     72
                      A                      A                      A
 Frequencies --   3601.7562              3616.1375              3728.8243
 Red. masses --      1.0786                 1.0471                 1.1052
 Frc consts  --      8.2442                 8.0675                 9.0543
 IR Inten    --    162.3994                97.7776                64.9225

 - Thermochemistry -
 -------------------
 Temperature   298.150 Kelvin.  Pressure   1.00000 Atm.
 Atom     1 has atomic number  6 and mass  12.00000

 Molecular mass:   188.08576 amu.
 Principal axes and moments of inertia in atomic units:
                           1         2         3
     Eigenvalues --  1230.597675218.486415967.11254
           X            0.80463   0.37532  -0.46011
           Y           -0.59211   0.56514  -0.57447
           Z            0.04442   0.73467   0.67697
 This molecule is an asymmetric top.
 Rotational symmetry number  1.
 Warning -- assumption of classical behavior for rotation
           may cause significant error
 Rotational temperatures (Kelvin)      0.07038     0.01660     0.01452
 Rotational constants (GHZ):           1.46656     0.34584     0.30245
    1 imaginary frequencies ignored.
 Zero-point vibrational energy     566223.8 (Joules/Mol)
                                  135.33073 (Kcal/Mol)
 Warning -- explicit consideration of  21 degrees of freedom as
           vibrations may cause significant error
 Vibrational temperatures:     25.80    51.14    79.89   117.40   149.20
          (Kelvin)            219.11   235.14   248.34   267.36   277.68
                              297.49   377.92   405.90   438.98   489.10
                              556.15   602.12   742.38   781.08   794.92
                              844.03   939.01   967.60  1046.03  1049.87
                             1102.08  1127.38  1127.86  1353.44  1367.01
                             1405.30  1409.12  1440.09  1453.10  1547.43
                             1548.85  1576.25  1601.09  1646.29  1692.71
                             1792.65  1825.95  1989.97  2000.32  2026.35
                             2036.42  2057.09  2119.84  2139.76  2152.00
                             2157.03  2167.19  2219.93  2270.97  2419.74
                             2452.01  2588.38  4423.13  4426.51  4531.42
                             4557.54  4561.77  4570.76  4571.86  4664.37
                             4684.99  4815.11  4827.41  5182.12  5202.81
                             5364.94

 Zero-point correction=                           0.215663 (Hartree/Particle)
 Thermal correction to Energy=                    0.230436
 Thermal correction to Enthalpy=                  0.231380
 Thermal correction to Gibbs Free Energy=         0.172020
 Sum of electronic and zero-point Energies=           -912.389506
 Sum of electronic and thermal Energies=              -912.374733
 Sum of electronic and thermal Enthalpies=            -912.373789
 Sum of electronic and thermal Free Energies=         -912.433149

                     E (Thermal)             CV                S
                      KCal/Mol        Cal/Mol-Kelvin    Cal/Mol-Kelvin
 Total                  144.601             52.156            124.934
 Electronic               0.000              0.000              0.000
 Translational            0.889              2.981             41.601
 Rotational               0.889              2.981             32.016
 Vibrational            142.823             46.194             51.316
 Vibration     1          0.593              1.986              6.851
 Vibration     2          0.594              1.982              5.493
 Vibration     3          0.596              1.975              4.610
 Vibration     4          0.600              1.962              3.852
 Vibration     5          0.605              1.946              3.384
 Vibration     6          0.619              1.900              2.643
 Vibration     7          0.623              1.887              2.510
 Vibration     8          0.626              1.876              2.407
 Vibration     9          0.632              1.859              2.269
 Vibration    10          0.635              1.850              2.199
 Vibration    11          0.641              1.830              2.072
 Vibration    12          0.670              1.741              1.644
 Vibration    13          0.681              1.707              1.521
 Vibration    14          0.696              1.664              1.389
 Vibration    15          0.720              1.596              1.212
 Vibration    16          0.755              1.499              1.013
 Vibration    17          0.781              1.430              0.897
 Vibration    18          0.871              1.215              0.619
 Vibration    19          0.898              1.155              0.559
 Vibration    20          0.908              1.134              0.539
 Vibration    21          0.944              1.060              0.473

 Normal termination of Gaussian 09 at Thu Oct  8 00:08:21 2020.
