 Gaussian 09, Revision E.01,
 Gaussian 09:  EM64L-G09RevE.01 30-Nov-2015

 --------------------------------------
 # opt=tight freq b3lyp/6-31g(d) nosymm
 --------------------------------------

 -------------------
 Title Card Required
 -------------------
 Symbolic Z-matrix:
 Charge =  0 Multiplicity = 1

 SCF Done:  E(RB3LYP) =  -1388.60401344     A.U. after   16 cycles
 SCF Done:  E(RB3LYP) =  -1387.41525392     A.U. after   24 cycles
 SCF Done:  E(RB3LYP) =  -1388.60401505     A.U. after    9 cycles
 SCF Done:  E(RB3LYP) =  -1388.60289243     A.U. after   13 cycles
 SCF Done:  E(RB3LYP) =  -1388.60411342     A.U. after   10 cycles
 SCF Done:  E(RB3LYP) =  -1388.57413213     A.U. after   15 cycles
 SCF Done:  E(RB3LYP) =  -1388.60420732     A.U. after   11 cycles
 SCF Done:  E(RB3LYP) =  -1388.60426151     A.U. after   11 cycles
 SCF Done:  E(RB3LYP) =  -1388.60204279     A.U. after   14 cycles
 SCF Done:  E(RB3LYP) =  -1388.60433714     A.U. after   11 cycles
 SCF Done:  E(RB3LYP) =  -1388.60515254     A.U. after    6 cycles
 SCF Done:  E(RB3LYP) =  -1388.60515254     A.U. after    6 cycles
 SCF Done:  E(RB3LYP) =  -1388.60515254     A.U. after    6 cycles
 SCF Done:  E(RB3LYP) =  -1388.60515254     A.U. after    6 cycles
 SCF Done:  E(RB3LYP) =  -1388.60515254     A.U. after    4 cycles
 SCF Done:  E(RB3LYP) =  -1388.60515254     A.U. after    5 cycles
 SCF Done:  E(RB3LYP) =  -1388.60515254     A.U. after    4 cycles
 SCF Done:  E(RB3LYP) =  -1388.60515254     A.U. after    4 cycles
 SCF Done:  E(RB3LYP) =  -1388.60515254     A.U. after    4 cycles
 Optimization completed.
    -- Stationary point found.
 Normal termination of Gaussian 09 at Thu Mar 25 04:00:25 2021.

 --------------------------------------------------------------------
 #N Geom=AllCheck Guess=TCheck SCRF=Check GenChk RB3LYP/6-31G(d) Freq
 --------------------------------------------------------------------

 Structure from the checkpoint file:  "/localscratch/enas93.64620679.0/Gau-169536.chk"
 -------------------
 Title Card Required
 -------------------
 Charge =  0 Multiplicity = 1

                          Input orientation:
 ---------------------------------------------------------------------
 Center     Atomic      Atomic             Coordinates (Angstroms)
 Number     Number       Type             X           Y           Z
 ---------------------------------------------------------------------
      1          6           0       -0.250086    3.317300    2.708920
      2          6           0       -2.649980    3.957650    1.405115
      3          6           0       -2.198670    4.749762    2.409324
      4          7           0       -1.034977    4.447279    3.048591
      5          1           0       -3.572964    4.180455    0.883582
      6          1           0       -2.722258    5.638240    2.747051
      7          8           0        0.792905    3.124298    3.343338
      8          7           0       -0.703361    2.524855    1.705132
      9          6           0       -1.840922    2.806642    1.067347
     10          7           0       -2.229619    1.982657    0.083489
     11          1           0       -1.668006    1.157909   -0.180064
     12          1           0       -3.081534    2.168256   -0.422900
     13          1           0       -0.676488    5.022181    3.799353
     14          6           0       -0.582903   -2.012813   -2.200974
     15          1           0       -1.628047   -2.260151   -1.969491
     16          6           0        0.205552   -3.273650   -2.556551
     17          6           0       -0.007764   -1.228392   -1.007822
     18          1           0        1.259000   -3.010362   -2.714894
     19          1           0        0.200187   -3.962615   -1.702491
     20          6           0       -0.332179   -4.001763   -3.805552
     21          8           0       -0.699154   -0.241360   -0.601261
     22          8           0        1.091698   -1.597664   -0.521569
     23          1           0       -1.401299   -4.217926   -3.632605
     24          6           0        0.345129   -5.360362   -3.938060
     25          8           0        0.940041   -5.733921   -4.926823
     26          7           0       -0.223578   -3.170492   -5.000944
     27          1           0        0.762372   -2.945584   -5.141143
     28          1           0       -0.473446   -3.734370   -5.813725
     29          1           0       -0.626477   -1.340081   -3.065744
     30          1           0        0.257542   -6.020624   -3.043310
     31         16           0        2.207311   -0.235037    1.541378
     32          6           0        1.978407    1.163944    0.394786
     33          1           0        1.085873    0.925246   -0.187959
     34          1           0        1.836799    2.076934    0.971796
     35          1           0        2.871085    1.199791   -0.233535
     36          6           0        0.555402   -0.462309    2.278903
     37          1           0        0.587629   -1.406487    2.827380
     38          1           0        0.334305    0.387569    2.923642
     39          1           0       -0.139360   -0.506436    1.435612
     40          6           0        3.034600    0.642271    2.924937
     41          1           0        3.143966   -0.067379    3.749324
     42          1           0        4.027395    0.944018    2.580670
     43          1           0        2.440832    1.510454    3.227260
 ---------------------------------------------------------------------

 SCF Done:  E(RB3LYP) =  -1388.60515254     A.U. after    1 cycles

 Alpha  occ. eigenvalues --  -88.97041 -19.13721 -19.10529 -19.05832 -19.05827
 Alpha  occ. eigenvalues --  -14.39419 -14.34649 -14.30884 -14.30003 -10.30712
 Alpha  occ. eigenvalues --  -10.28165 -10.26498 -10.25784 -10.23912 -10.22665
 Alpha  occ. eigenvalues --  -10.21251 -10.21164 -10.20502 -10.20456 -10.16437
 Alpha  occ. eigenvalues --  -10.14860  -8.02622  -5.98922  -5.98865  -5.98299
 Alpha  occ. eigenvalues --   -1.04155  -1.03205  -0.98908  -0.96790  -0.94279
 Alpha  occ. eigenvalues --   -0.89874  -0.87327  -0.86787  -0.86685  -0.78543
 Alpha  occ. eigenvalues --   -0.75224  -0.72531  -0.72074  -0.68337  -0.66557
 Alpha  occ. eigenvalues --   -0.65026  -0.61631  -0.59396  -0.57254  -0.55854
 Alpha  occ. eigenvalues --   -0.54872  -0.52675  -0.49466  -0.48280  -0.47940
 Alpha  occ. eigenvalues --   -0.47416  -0.46788  -0.46380  -0.45379  -0.45076
 Alpha  occ. eigenvalues --   -0.44763  -0.43891  -0.43368  -0.43120  -0.43066
 Alpha  occ. eigenvalues --   -0.41944  -0.40714  -0.40662  -0.39554  -0.39123
 Alpha  occ. eigenvalues --   -0.38789  -0.38432  -0.37475  -0.36862  -0.36562
 Alpha  occ. eigenvalues --   -0.34891  -0.34154  -0.33389  -0.32054  -0.31522
 Alpha  occ. eigenvalues --   -0.30539  -0.26665  -0.25826  -0.25379  -0.24369
 Alpha  occ. eigenvalues --   -0.23595  -0.22067  -0.21703  -0.20357  -0.19941
 Alpha virt. eigenvalues --   -0.03168  -0.00722   0.01845   0.02150   0.02200
 Alpha virt. eigenvalues --    0.06070   0.06816   0.08805   0.09096   0.09480
 Alpha virt. eigenvalues --    0.10555   0.11671   0.12195   0.12728   0.12826

 Mulliken charges:
               1
     1  C    0.718189
     2  C   -0.221834
     3  C    0.116350
     4  N   -0.621946
     5  H    0.141746
     6  H    0.170909
     7  O   -0.573983
     8  N   -0.588358
     9  C    0.547319
    10  N   -0.804800
    11  H    0.430784
    12  H    0.331334
    13  H    0.342870
    14  C   -0.343670
    15  H    0.133426
    16  C   -0.258909
    17  C    0.601216
    18  H    0.149060
    19  H    0.139049
    20  C   -0.054776
    21  O   -0.627869
    22  O   -0.587483
    23  H    0.143318
    24  C    0.239963
    25  O   -0.398709
    26  N   -0.698594
    27  H    0.297457
    28  H    0.302169
    29  H    0.168678
    30  H    0.094045
    31  S    0.579050
    32  C   -0.618061
    33  H    0.276919
    34  H    0.221928
    35  H    0.188281
    36  C   -0.621258
    37  H    0.185861
    38  H    0.223294
    39  H    0.279801
    40  C   -0.654271
    41  H    0.192888
    42  H    0.193058
    43  H    0.265559
 Sum of Mulliken charges =  -0.00000

 Dipole moment (field-independent basis, Debye):
    X=             -1.8037    Y=              6.5892    Z=              5.7432  Tot=              8.9250
 Quadrupole moment (field-independent basis, Debye-Ang):
   XX=           -112.0580   YY=           -120.9581   ZZ=           -136.6588
   XY=             -5.6492   XZ=              4.7324   YZ=             -7.7825

  Exact polarizability: 179.080 -15.962 193.019  28.649  46.975 197.184
 Approx polarizability: 282.676 -14.774 257.677  50.170  47.709 288.110

                      1                      2                      3
                      A                      A                      A
 Frequencies --      8.5980                14.2881                22.3017
 Red. masses --      5.3073                 4.4748                 7.5363
 Frc consts  --      0.0002                 0.0005                 0.0022
 IR Inten    --      0.4312                 0.5877                 0.0859

                      4                      5                      6
                      A                      A                      A
 Frequencies --     28.1387                39.2404                40.5205
 Red. masses --      5.8806                 7.1864                 5.7117
 Frc consts  --      0.0027                 0.0065                 0.0055
 IR Inten    --      5.9394                 0.2508                 6.4628

                      7                      8                      9
                      A                      A                      A
 Frequencies --     60.4482                64.2918                74.2539
 Red. masses --      7.9552                 5.1541                 3.2471
 Frc consts  --      0.0171                 0.0126                 0.0105
 IR Inten    --      3.2093                16.2379                 6.6778

                     10                     11                     12
                      A                      A                      A
 Frequencies --     89.4012               107.6463               113.9244
 Red. masses --      5.6652                 1.8817                 2.8563
 Frc consts  --      0.0267                 0.0128                 0.0218
 IR Inten    --      9.0765                 5.1796                26.3939

                     13                     14                     15
                      A                      A                      A
 Frequencies --    115.0956               128.4284               133.4119
 Red. masses --      3.7159                 2.8898                 4.0599
 Frc consts  --      0.0290                 0.0281                 0.0426
 IR Inten    --     26.4697                11.2628                12.2191

                     16                     17                     18
                      A                      A                      A
 Frequencies --    139.4876               155.2858               159.5996
 Red. masses --      3.0242                 5.5258                 3.8664
 Frc consts  --      0.0347                 0.0785                 0.0580
 IR Inten    --      8.6171                 0.1998                28.1540

                     19                     20                     21
                      A                      A                      A
 Frequencies --    202.3761               202.8076               218.7053
 Red. masses --      6.2114                 1.8326                 1.4273
 Frc consts  --      0.1499                 0.0444                 0.0402
 IR Inten    --      3.3142                17.5096                 0.6225

                     22                     23                     24
                      A                      A                      A
 Frequencies --    228.2983               253.7608               269.9753
 Red. masses --      1.3073                 1.1213                 3.6662
 Frc consts  --      0.0401                 0.0425                 0.1574
 IR Inten    --      6.2776                 0.7769                12.4267

                     25                     26                     27
                      A                      A                      A
 Frequencies --    288.1673               305.1726               327.3883
 Red. masses --      3.7860                 3.0201                 1.9393
 Frc consts  --      0.1852                 0.1657                 0.1225
 IR Inten    --     13.7801                 5.6101                 1.9454

                     28                     29                     30
                      A                      A                      A
 Frequencies --    329.9473               340.7456               389.8613
 Red. masses --      3.1596                 2.6044                 2.2109
 Frc consts  --      0.2027                 0.1782                 0.1980
 IR Inten    --     11.8482                 4.1544                 4.8225

                     31                     32                     33
                      A                      A                      A
 Frequencies --    397.0552               436.6039               444.9547
 Red. masses --      3.8009                 1.3143                 2.5631
 Frc consts  --      0.3531                 0.1476                 0.2990
 IR Inten    --      4.1079               136.9501                 8.3200

                     34                     35                     36
                      A                      A                      A
 Frequencies --    512.9119               543.3861               549.8516
 Red. masses --      3.8793                 5.3698                 5.2359
 Frc consts  --      0.6013                 0.9342                 0.9327
 IR Inten    --     24.4229                25.9600                 4.6207

                     37                     38                     39
                      A                      A                      A
 Frequencies --    581.5315               584.6535               608.1515
 Red. masses --      2.1681                 8.9343                 1.1804
 Frc consts  --      0.4320                 1.7993                 0.2572
 IR Inten    --      5.1990                 4.8387                43.8842

                     40                     41                     42
                      A                      A                      A
 Frequencies --    635.9103               674.0674               696.1256
 Red. masses --      4.9848                 5.5858                 6.0668
 Frc consts  --      1.1877                 1.4953                 1.7321
 IR Inten    --      2.1657                47.2359                 8.4273

                     43                     44                     45
                      A                      A                      A
 Frequencies --    712.4976               723.9827               738.3705
 Red. masses --      6.1888                 1.8213                 3.4279
 Frc consts  --      1.8511                 0.5625                 1.1011
 IR Inten    --      0.0153                52.8548                 5.2552

                     46                     47                     48
                      A                      A                      A
 Frequencies --    770.2079               773.4484               781.0580
 Red. masses --     11.1986                 2.4523                 7.6838
 Frc consts  --      3.9141                 0.8643                 2.7618
 IR Inten    --     29.9720                39.8175                 7.2387

                     49                     50                     51
                      A                      A                      A
 Frequencies --    791.5340               831.1593               844.6147
 Red. masses --      1.4884                 3.1938                 1.0637
 Frc consts  --      0.5494                 1.2999                 0.4471
 IR Inten    --      7.6113                24.3200                30.8277

                     52                     53                     54
                      A                      A                      A
 Frequencies --    921.7427               942.0051               948.6240
 Red. masses --      4.2503                 1.9896                 3.3480
 Frc consts  --      2.1276                 1.0402                 1.7751
 IR Inten    --     40.4308               114.3911                 7.0859

                     55                     56                     57
                      A                      A                      A
 Frequencies --    953.0201               953.2585               954.7920
 Red. masses --      1.2765                 1.8612                 1.2561
 Frc consts  --      0.6831                 0.9965                 0.6747
 IR Inten    --      0.1220                 6.5258                 0.6300

                     58                     59                     60
                      A                      A                      A
 Frequencies --    993.0535               997.6642              1004.1481
 Red. masses --      4.2951                 1.1882                 1.1679
 Frc consts  --      2.4956                 0.6968                 0.6938
 IR Inten    --      0.2478                 1.6359                 2.7955

                     61                     62                     63
                      A                      A                      A
 Frequencies --   1012.9113              1043.6887              1086.5786
 Red. masses --      1.7225                 1.7777                 1.2818
 Frc consts  --      1.0413                 1.1409                 0.8917
 IR Inten    --     37.9840                 5.7166                10.9604

                     64                     65                     66
                      A                      A                      A
 Frequencies --   1096.8564              1099.0613              1106.2048
 Red. masses --      1.4409                 2.2609                 1.3237
 Frc consts  --      1.0214                 1.6090                 0.9543
 IR Inten    --     41.5487                 7.7053                20.3524

                     67                     68                     69
                      A                      A                      A
 Frequencies --   1117.9351              1130.5543              1142.9051
 Red. masses --      1.9710                 1.4798                 1.2453
 Frc consts  --      1.4514                 1.1144                 0.9584
 IR Inten    --     87.4737                 5.1679                 0.8648

                     70                     71                     72
                      A                      A                      A
 Frequencies --   1173.1378              1226.4555              1257.1850
 Red. masses --      2.1865                 1.1859                 1.3286
 Frc consts  --      1.7730                 1.0510                 1.2372
 IR Inten    --      9.6783                41.6210                10.2653

                     73                     74                     75
                      A                      A                      A
 Frequencies --   1286.7987              1309.3636              1318.4705
 Red. masses --      1.4455                 6.8612                 1.3839
 Frc consts  --      1.4103                 6.9306                 1.4174
 IR Inten    --      4.7156                68.7501                27.4908

                     76                     77                     78
                      A                      A                      A
 Frequencies --   1343.5922              1381.2533              1384.1348
 Red. masses --      1.2899                 1.1566                 1.1580
 Frc consts  --      1.3720                 1.3001                 1.3071
 IR Inten    --     22.3565                11.9978                 8.1811

                     79                     80                     81
                      A                      A                      A
 Frequencies --   1386.9141              1390.2926              1397.9711
 Red. masses --      1.6356                 1.4694                 1.4222
 Frc consts  --      1.8536                 1.6734                 1.6376
 IR Inten    --     23.9715                 3.9622                14.7778

                     82                     83                     84
                      A                      A                      A
 Frequencies --   1419.0703              1430.9661              1440.5725
 Red. masses --      1.4294                 1.2514                 3.0539
 Frc consts  --      1.6959                 1.5097                 3.7340
 IR Inten    --    173.8726                12.8197               281.1843

                     85                     86                     87
                      A                      A                      A
 Frequencies --   1443.2891              1464.7676              1479.9314
 Red. masses --      2.5828                 1.0476                 1.0744
 Frc consts  --      3.1699                 1.3243                 1.3864
 IR Inten    --     94.0227                 0.0849                45.2496

                     88                     89                     90
                      A                      A                      A
 Frequencies --   1496.4336              1497.2414              1504.1667
 Red. masses --      1.0994                 1.0618                 1.0496
 Frc consts  --      1.4505                 1.4025                 1.3992
 IR Inten    --      3.0163                 6.0189                 2.7311

                     91                     92                     93
                      A                      A                      A
 Frequencies --   1511.9951              1517.2161              1524.5558
 Red. masses --      1.0908                 1.0695                 1.0551
 Frc consts  --      1.4693                 1.4506                 1.4449
 IR Inten    --      8.0860                12.5506                13.8646

                     94                     95                     96
                      A                      A                      A
 Frequencies --   1546.7024              1561.0147              1659.0095
 Red. masses --      2.9058                 4.7296                 8.4558
 Frc consts  --      4.0957                 6.7903                13.7121
 IR Inten    --    125.4535                95.5253               402.7415

                     97                     98                     99
                      A                      A                      A
 Frequencies --   1682.2918              1704.2924              1716.8339
 Red. masses --      1.6089                 1.0871                 3.5244
 Frc consts  --      2.6828                 1.8604                 6.1205
 IR Inten    --     29.4673                28.8220               556.4898

                    100                    101                    102
                      A                      A                      A
 Frequencies --   1761.1886              1823.5251              2883.7451
 Red. masses --      7.1670                10.2881                 1.0837
 Frc consts  --     13.0979                20.1563                 5.3098
 IR Inten    --    622.5853               184.0623               126.4086

                    103                    104                    105
                      A                      A                      A
 Frequencies --   2983.4423              3043.1307              3052.6973
 Red. masses --      1.0817                 1.0659                 1.0617
 Frc consts  --      5.6725                 5.8157                 5.8293
 IR Inten    --     28.8260                12.0489                24.9916

                    106                    107                    108
                      A                      A                      A
 Frequencies --   3059.8034              3064.4176              3074.8820
 Red. masses --      1.0299                 1.0308                 1.0296
 Frc consts  --      5.6811                 5.7032                 5.7353
 IR Inten    --     27.3871                49.6017                48.4798

                    109                    110                    111
                      A                      A                      A
 Frequencies --   3079.8451              3099.5514              3165.6439
 Red. masses --      1.0960                 1.1011                 1.1054
 Frc consts  --      6.1249                 6.2325                 6.5267
 IR Inten    --      6.0715                37.3420                 3.3624

                    112                    113                    114
                      A                      A                      A
 Frequencies --   3166.2841              3168.3190              3177.4707
 Red. masses --      1.1100                 1.1069                 1.1084
 Frc consts  --      6.5568                 6.5464                 6.5937
 IR Inten    --     15.6096                20.1689                35.8406

                    115                    116                    117
                      A                      A                      A
 Frequencies --   3204.0696              3210.1182              3219.1062
 Red. masses --      1.1086                 1.1080                 1.0892
 Frc consts  --      6.7052                 6.7271                 6.6499
 IR Inten    --      2.0649                 2.5330                 6.3193

                    118                    119                    120
                      A                      A                      A
 Frequencies --   3237.9951              3282.5956              3451.3973
 Red. masses --      1.0985                 1.0730                 1.0505
 Frc consts  --      6.7859                 6.8122                 7.3728
 IR Inten    --      9.7941              1485.3590                 0.2976

                    121                    122                    123
                      A                      A                      A
 Frequencies --   3528.6503              3621.8094              3676.7814
 Red. masses --      1.0902                 1.0786                 1.0845
 Frc consts  --      7.9978                 8.3363                 8.6378
 IR Inten    --      0.0882                67.6816                65.0764

 - Thermochemistry -
 -------------------
 Temperature   298.150 Kelvin.  Pressure   1.00000 Atm.
 Atom     1 has atomic number  6 and mass  12.00000

 Molecular mass:   318.13618 amu.
 Principal axes and moments of inertia in atomic units:
                           1         2         3
     Eigenvalues --  3750.79348********************
           X           -0.09000   0.83908  -0.53651
           Y            0.76282  -0.28826  -0.57880
           Z            0.64032   0.46135   0.61413
 This molecule is an asymmetric top.
 Rotational symmetry number  1.
 Warning -- assumption of classical behavior for rotation
           may cause significant error
 Rotational temperatures (Kelvin)      0.02309     0.00490     0.00419
 Rotational constants (GHZ):           0.48116     0.10216     0.08730
 Zero-point vibrational energy     924001.8 (Joules/Mol)
                                  220.84173 (Kcal/Mol)
 Warning -- explicit consideration of  39 degrees of freedom as
           vibrations may cause significant error
 Vibrational temperatures:     12.37    20.56    32.09    40.49    56.46
          (Kelvin)             58.30    86.97    92.50   106.83   128.63
                              154.88   163.91   165.60   184.78   191.95
                              200.69   223.42   229.63   291.17   291.79
                              314.67   328.47   365.10   388.43   414.61
                              439.07   471.04   474.72   490.26   560.92
                              571.27   628.17   640.19   737.96   781.81
                              791.11   836.69   841.18   874.99   914.93
                              969.83  1001.57  1025.12  1041.65  1062.35
                             1108.16  1112.82  1123.77  1138.84  1195.85
                             1215.21  1326.18  1355.33  1364.86  1371.18
                             1371.52  1373.73  1428.78  1435.41  1444.74
                             1457.35  1501.63  1563.34  1578.13  1581.30
                             1591.58  1608.46  1626.61  1644.38  1687.88
                             1764.59  1808.81  1851.41  1883.88  1896.98
                             1933.13  1987.31  1991.46  1995.46  2000.32
                             2011.37  2041.72  2058.84  2072.66  2076.57
                             2107.47  2129.29  2153.03  2154.19  2164.16
                             2175.42  2182.93  2193.49  2225.36  2245.95
                             2386.94  2420.44  2452.09  2470.14  2533.95
                             2623.64  4149.06  4292.50  4378.38  4392.15
                             4402.37  4409.01  4424.06  4431.20  4459.56
                             4554.65  4555.57  4558.50  4571.67  4609.94
                             4618.64  4631.57  4658.75  4722.92  4965.78
                             5076.93  5210.97  5290.06

 Zero-point correction=                           0.351934 (Hartree/Particle)
 Thermal correction to Energy=                    0.378019
 Thermal correction to Enthalpy=                  0.378963
 Thermal correction to Gibbs Free Energy=         0.290008
 Sum of electronic and zero-point Energies=          -1388.253219
 Sum of electronic and thermal Energies=             -1388.227134
 Sum of electronic and thermal Enthalpies=           -1388.226189
 Sum of electronic and thermal Free Energies=        -1388.315144

                     E (Thermal)             CV                S
                      KCal/Mol        Cal/Mol-Kelvin    Cal/Mol-Kelvin
 Total                  237.210             90.779            187.221
 Electronic               0.000              0.000              0.000
 Translational            0.889              2.981             43.168
 Rotational               0.889              2.981             35.570
 Vibrational            235.433             84.818            108.483
 Vibration     1          0.593              1.987              8.311
 Vibration     2          0.593              1.986              7.302
 Vibration     3          0.593              1.985              6.418
 Vibration     4          0.593              1.984              5.957
 Vibration     5          0.594              1.981              5.297
 Vibration     6          0.594              1.981              5.233
 Vibration     7          0.597              1.973              4.443
 Vibration     8          0.597              1.971              4.321
 Vibration     9          0.599              1.966              4.037
 Vibration    10          0.602              1.957              3.673
 Vibration    11          0.606              1.943              3.311
 Vibration    12          0.607              1.938              3.201
 Vibration    13          0.608              1.937              3.181
 Vibration    14          0.611              1.925              2.969
 Vibration    15          0.613              1.920              2.896
 Vibration    16          0.615              1.914              2.811
 Vibration    17          0.620              1.897              2.606
 Vibration    18          0.621              1.892              2.555
 Vibration    19          0.639              1.837              2.111
 Vibration    20          0.639              1.836              2.107
 Vibration    21          0.646              1.813              1.970
 Vibration    22          0.651              1.798              1.892
 Vibration    23          0.665              1.756              1.704
 Vibration    24          0.674              1.728              1.596
 Vibration    25          0.685              1.696              1.485
 Vibration    26          0.696              1.664              1.388
 Vibration    27          0.711              1.621              1.273
 Vibration    28          0.713              1.616              1.260
 Vibration    29          0.720              1.594              1.209
 Vibration    30          0.758              1.492              1.001
 Vibration    31          0.764              1.476              0.974
 Vibration    32          0.797              1.390              0.837
 Vibration    33          0.804              1.372              0.811
 Vibration    34          0.868              1.221              0.627
 Vibration    35          0.899              1.154              0.558
 Vibration    36          0.905              1.140              0.544
 Vibration    37          0.938              1.071              0.483
 Vibration    38          0.942              1.065              0.477
 Vibration    39          0.967              1.015              0.436

 Normal termination of Gaussian 09 at Thu Mar 25 04:05:58 2021.
