 Gaussian 09, Revision E.01,
 Gaussian 09:  EM64L-G09RevE.01 30-Nov-2015

 --------------------------------
 # opt freq b3lyp/6-31g(d) nosymm
 --------------------------------

 -------------------
 Title Card Required
 -------------------
 Symbolic Z-matrix:
 Charge =  1 Multiplicity = 1

 SCF Done:  E(RB3LYP) =  -912.649319683     A.U. after   15 cycles
 SCF Done:  E(RB3LYP) =  -912.649380586     A.U. after   12 cycles
 SCF Done:  E(RB3LYP) =  -912.649446636     A.U. after   12 cycles
 SCF Done:  E(RB3LYP) =  -912.649564306     A.U. after   12 cycles
 SCF Done:  E(RB3LYP) =  -912.649673576     A.U. after   13 cycles
 SCF Done:  E(RB3LYP) =  -912.649832331     A.U. after   13 cycles
 SCF Done:  E(RB3LYP) =  -912.650077040     A.U. after   13 cycles
 SCF Done:  E(RB3LYP) =  -912.625777794     A.U. after   15 cycles
 SCF Done:  E(RB3LYP) =  -912.650095660     A.U. after   11 cycles
 SCF Done:  E(RB3LYP) =  -912.651322850     A.U. after   14 cycles
 SCF Done:  E(RB3LYP) =  -912.659866886     A.U. after    8 cycles
 SCF Done:  E(RB3LYP) =  -912.659866998     A.U. after    7 cycles
 SCF Done:  E(RB3LYP) =  -912.659867094     A.U. after    7 cycles
 SCF Done:  E(RB3LYP) =  -912.659867235     A.U. after    7 cycles
 SCF Done:  E(RB3LYP) =  -912.659867617     A.U. after    8 cycles
 SCF Done:  E(RB3LYP) =  -912.659868061     A.U. after    9 cycles
 SCF Done:  E(RB3LYP) =  -912.659868259     A.U. after    8 cycles
 SCF Done:  E(RB3LYP) =  -912.659868430     A.U. after    8 cycles
 SCF Done:  E(RB3LYP) =  -912.659868463     A.U. after    7 cycles
 Optimization completed.
    -- Stationary point found.
 Normal termination of Gaussian 09 at Thu Oct  8 00:22:33 2020.

 --------------------------------------------------------------------
 #N Geom=AllCheck Guess=TCheck SCRF=Check GenChk RB3LYP/6-31G(d) Freq
 --------------------------------------------------------------------

 Structure from the checkpoint file:  "/localscratch/enas93.52313747.0/Gau-30440.chk"
 -------------------
 Title Card Required
 -------------------
 Charge =  1 Multiplicity = 1

                          Input orientation:
 ---------------------------------------------------------------------
 Center     Atomic      Atomic             Coordinates (Angstroms)
 Number     Number       Type             X           Y           Z
 ---------------------------------------------------------------------
      1          6           0       -1.696517    2.337738    1.117087
      2          6           0       -2.429086    0.822221   -1.167359
      3          6           0       -3.210020    1.839941   -0.720591
      4          7           0       -2.852692    2.560002    0.372797
      5          1           0       -2.706250    0.242675   -2.037734
      6          1           0       -4.138574    2.123312   -1.203290
      7          8           0       -1.406563    2.995536    2.085420
      8          7           0       -0.891609    1.268482    0.632706
      9          6           0       -1.222913    0.525326   -0.461955
     10          7           0       -0.428774   -0.462230   -0.862443
     11          1           0        0.455811   -0.755050   -0.422636
     12          1           0       -0.701585   -0.995284   -1.678268
     13          1           0       -3.429491    3.321643    0.714795
     14         16           0        2.517653   -1.786515    0.202022
     15          6           0        3.665769   -1.857756   -1.220083
     16          1           0        3.880404   -0.829165   -1.519680
     17          1           0        4.599803   -2.338410   -0.919052
     18          1           0        3.224082   -2.397437   -2.061967
     19          6           0        0.347140    0.993667    1.385007
     20          1           0        0.397162    1.708143    2.203232
     21          1           0        1.214697    1.118709    0.732579
     22          1           0        0.322594   -0.023234    1.784314
     23          6           0        2.279878   -3.569162    0.535893
     24          1           0        1.590483   -3.655425    1.379183
     25          1           0        1.859230   -4.084092   -0.331827
     26          1           0        3.233320   -4.025317    0.813282
 ---------------------------------------------------------------------

 SCF Done:  E(RB3LYP) =  -912.659868463     A.U. after    1 cycles

 Alpha  occ. eigenvalues --  -88.99511 -19.28585 -14.57294 -14.56423 -14.54263
 Alpha  occ. eigenvalues --  -10.49474 -10.48006 -10.42887 -10.36933 -10.36905
 Alpha  occ. eigenvalues --  -10.32050 -10.32049  -8.05649  -6.02144  -6.01793
 Alpha  occ. eigenvalues --   -6.01144  -1.23506  -1.16854  -1.13031  -1.08368
 Alpha  occ. eigenvalues --   -0.96273  -0.91095  -0.89584  -0.84860  -0.82016
 Alpha  occ. eigenvalues --   -0.81613  -0.75420  -0.73466  -0.71641  -0.71215
 Alpha  occ. eigenvalues --   -0.66657  -0.65203  -0.64459  -0.61039  -0.59393
 Alpha  occ. eigenvalues --   -0.58456  -0.56906  -0.55435  -0.55303  -0.54930
 Alpha  occ. eigenvalues --   -0.54845  -0.53628  -0.51892  -0.51243  -0.47922
 Alpha  occ. eigenvalues --   -0.44291  -0.43929  -0.43464  -0.40510  -0.34814
 Alpha virt. eigenvalues --   -0.21089  -0.15209  -0.08523  -0.08471  -0.06809
 Alpha virt. eigenvalues --   -0.04878  -0.04697  -0.03137  -0.02018  -0.00167
 Alpha virt. eigenvalues --    0.00528   0.01180   0.01881   0.02798   0.03434

 Mulliken charges:
               1
     1  C    0.804540
     2  C   -0.236548
     3  C    0.152301
     4  N   -0.637007
     5  H    0.204276
     6  H    0.238172
     7  O   -0.437434
     8  N   -0.555534
     9  C    0.680155
    10  N   -0.791815
    11  H    0.403080
    12  H    0.384164
    13  H    0.398109
    14  S    0.044132
    15  C   -0.580313
    16  H    0.198758
    17  H    0.211843
    18  H    0.190649
    19  C   -0.377346
    20  H    0.257413
    21  H    0.214462
    22  H    0.213134
    23  C   -0.580168
    24  H    0.198121
    25  H    0.191042
    26  H    0.211814
 Sum of Mulliken charges =   1.00000

 Dipole moment (field-independent basis, Debye):
    X=             -4.5948    Y=              0.1428    Z=             -3.5847  Tot=              5.8295
 Quadrupole moment (field-independent basis, Debye-Ang):
   XX=            -37.5514   YY=            -54.9590   ZZ=            -72.1811
   XY=            -25.7877   XZ=              3.5278   YZ=             -1.2185

  Exact polarizability: 123.890 -32.833 118.183   5.919  18.929 102.058
 Approx polarizability: 167.462 -38.185 174.890   7.883  38.962 160.295

                      1                      2                      3
                      A                      A                      A
 Frequencies --     18.2103                23.8677                44.7039
 Red. masses --      3.1826                 3.7452                 3.1940
 Frc consts  --      0.0006                 0.0013                 0.0038
 IR Inten    --      0.0484                 0.0128                 0.4513

                      4                      5                      6
                      A                      A                      A
 Frequencies --     59.6152                65.6281               113.0291
 Red. masses --      3.6551                 5.5131                 3.9303
 Frc consts  --      0.0077                 0.0140                 0.0296
 IR Inten    --      0.3415                 2.0706                 3.9177

                      7                      8                      9
                      A                      A                      A
 Frequencies --    114.4947               171.2873               173.0633
 Red. masses --      3.8999                 1.0742                 1.4545
 Frc consts  --      0.0301                 0.0186                 0.0257
 IR Inten    --     16.3580                 0.2406                 1.6341

                     10                     11                     12
                      A                      A                      A
 Frequencies --    181.0951               186.6107               242.5087
 Red. masses --      1.2056                 2.2673                 3.6389
 Frc consts  --      0.0233                 0.0465                 0.1261
 IR Inten    --      3.2702                 0.4143                 8.4558

                     13                     14                     15
                      A                      A                      A
 Frequencies --    262.5074               366.7468               402.2721
 Red. masses --      2.6107                 2.9390                 4.6504
 Frc consts  --      0.1060                 0.2329                 0.4434
 IR Inten    --      0.7233                 1.1640                 7.0759

                     16                     17                     18
                      A                      A                      A
 Frequencies --    441.8255               505.8226               547.7438
 Red. masses --      3.3819                 6.2458                 5.6417
 Frc consts  --      0.3890                 0.9415                 0.9973
 IR Inten    --      2.1246                 2.7021                10.5554

                     19                     20                     21
                      A                      A                      A
 Frequencies --    560.2467               573.6990               651.4277
 Red. masses --      1.1392                 4.5953                 1.3640
 Frc consts  --      0.2107                 0.8911                 0.3410
 IR Inten    --     88.7634                 4.2192                44.2619

                     22                     23                     24
                      A                      A                      A
 Frequencies --    677.0277               709.4732               723.7837
 Red. masses --      5.2105                 5.3079                 1.8544
 Frc consts  --      1.4071                 1.5742                 0.5724
 IR Inten    --      9.8834                 0.9657                67.1295

                     25                     26                     27
                      A                      A                      A
 Frequencies --    729.5965               742.6785               751.1365
 Red. masses --      3.6634                 1.5526                 7.8588
 Frc consts  --      1.1489                 0.5046                 2.6124
 IR Inten    --      2.9861                86.0832                34.4488

                     28                     29                     30
                      A                      A                      A
 Frequencies --    802.0554               858.3181               936.7984
 Red. masses --      1.4357                 5.3296                 1.1672
 Frc consts  --      0.5441                 2.3133                 0.6035
 IR Inten    --     10.0776                 6.0797                 0.2512

                     31                     32                     33
                      A                      A                      A
 Frequencies --    978.9663               981.2060               986.2289
 Red. masses --      1.1644                 2.1118                 1.3056
 Frc consts  --      0.6575                 1.1979                 0.7482
 IR Inten    --      0.3555                46.5328                 0.0710

                     34                     35                     36
                      A                      A                      A
 Frequencies --   1011.6428              1060.2739              1073.8017
 Red. masses --      1.2172                 1.7223                 1.3595
 Frc consts  --      0.7340                 1.1408                 0.9236
 IR Inten    --      9.4382                 9.6658                21.3348

                     37                     38                     39
                      A                      A                      A
 Frequencies --   1133.2119              1155.2481              1171.1515
 Red. masses --      2.3838                 1.3037                 1.8133
 Frc consts  --      1.8036                 1.0251                 1.4654
 IR Inten    --     15.7598                 0.0411                26.6147

                     40                     41                     42
                      A                      A                      A
 Frequencies --   1196.1357              1266.0891              1283.6782
 Red. masses --      3.5075                 1.3893                 2.5598
 Frc consts  --      2.9567                 1.3121                 2.4853
 IR Inten    --     26.2317                55.7249                 1.6954

                     43                     44                     45
                      A                      A                      A
 Frequencies --   1381.8034              1406.7520              1410.5352
 Red. masses --      1.1497                 1.1648                 1.5937
 Frc consts  --      1.2934                 1.3581                 1.8682
 IR Inten    --      2.9468                 7.3044                 0.5948

                     46                     47                     48
                      A                      A                      A
 Frequencies --   1452.8005              1490.9068              1498.9671
 Red. masses --      1.2521                 1.0500                 1.5437
 Frc consts  --      1.5571                 1.3752                 2.0436
 IR Inten    --      0.0170                 0.0297                24.8849

                     49                     50                     51
                      A                      A                      A
 Frequencies --   1501.3336              1505.7106              1514.1848
 Red. masses --      1.0517                 1.0567                 1.1209
 Frc consts  --      1.3967                 1.4115                 1.5142
 IR Inten    --     18.6264                22.1427                 5.0422

                     52                     53                     54
                      A                      A                      A
 Frequencies --   1515.9691              1531.3456              1584.4828
 Red. masses --      1.2112                 1.0402                 3.6119
 Frc consts  --      1.6400                 1.4372                 5.3426
 IR Inten    --     30.0581                20.9705               188.2947

                     55                     56                     57
                      A                      A                      A
 Frequencies --   1593.4002              1695.3767              1719.2173
 Red. masses --      3.2598                 3.5064                 1.6080
 Frc consts  --      4.8763                 5.9380                 2.8002
 IR Inten    --     38.3291               215.0547               699.8022

                     58                     59                     60
                      A                      A                      A
 Frequencies --   1868.1216              3071.0260              3074.1723
 Red. masses --      9.6458                 1.0299                 1.0300
 Frc consts  --     19.8334                 5.7229                 5.7349
 IR Inten    --    445.3398                21.2582                13.2710

                     61                     62                     63
                      A                      A                      A
 Frequencies --   3088.5628              3158.2271              3163.1579
 Red. masses --      1.0351                 1.1080                 1.1082
 Frc consts  --      5.8177                 6.5116                 6.5332
 IR Inten    --      7.9494                 8.8597                 0.0632

                     64                     65                     66
                      A                      A                      A
 Frequencies --   3164.3097              3168.5096              3169.6155
 Red. masses --      1.1079                 1.1057                 1.1051
 Frc consts  --      6.5359                 6.5406                 6.5413
 IR Inten    --      2.5868                 3.7017                 0.9858

                     67                     68                     69
                      A                      A                      A
 Frequencies --   3221.7629              3248.8349              3263.2036
 Red. masses --      1.1016                 1.0923                 1.0987
 Frc consts  --      6.7367                 6.7929                 6.8929
 IR Inten    --      3.9871                 1.7818                 6.5856

                     70                     71                     72
                      A                      A                      A
 Frequencies --   3288.6019              3595.5766              3639.4377
 Red. masses --      1.0739                 1.0795                 1.0840
 Frc consts  --      6.8427                 8.2224                 8.4596
 IR Inten    --   1662.3262               177.5095                85.6599

 - Thermochemistry -
 -------------------
 Temperature   298.150 Kelvin.  Pressure   1.00000 Atm.
 Atom     1 has atomic number  6 and mass  12.00000

 Molecular mass:   188.08576 amu.
 Principal axes and moments of inertia in atomic units:
                           1         2         3
     Eigenvalues --  1111.096875874.280606501.66484
           X            0.74320   0.43534   0.50806
           Y           -0.66356   0.38235   0.64304
           Z           -0.08569   0.81504  -0.57304
 This molecule is an asymmetric top.
 Rotational symmetry number  1.
 Warning -- assumption of classical behavior for rotation
           may cause significant error
 Rotational temperatures (Kelvin)      0.07795     0.01474     0.01332
 Rotational constants (GHZ):           1.62429     0.30723     0.27758
 Zero-point vibrational energy     573733.9 (Joules/Mol)
                                  137.12569 (Kcal/Mol)
 Warning -- explicit consideration of  20 degrees of freedom as
           vibrations may cause significant error
 Vibrational temperatures:     26.20    34.34    64.32    85.77    94.42
          (Kelvin)            162.62   164.73   246.44   249.00   260.56
                              268.49   348.92   377.69   527.67   578.78
                              635.69   727.76   788.08   806.07   825.42
                              937.26   974.09  1020.77  1041.36  1049.73
                             1068.55  1080.72  1153.98  1234.93  1347.84
                             1408.51  1411.73  1418.96  1455.53  1525.50
                             1544.96  1630.44  1662.14  1685.02  1720.97
                             1821.62  1846.92  1988.10  2024.00  2029.44
                             2090.25  2145.08  2156.68  2160.08  2166.38
                             2178.57  2181.14  2203.26  2279.71  2292.54
                             2439.27  2473.57  2687.81  4418.52  4423.04
                             4443.75  4543.98  4551.07  4552.73  4558.77
                             4560.36  4635.39  4674.34  4695.02  4731.56
                             5173.23  5236.33

 Zero-point correction=                           0.218524 (Hartree/Particle)
 Thermal correction to Energy=                    0.233406
 Thermal correction to Enthalpy=                  0.234351
 Thermal correction to Gibbs Free Energy=         0.173321
 Sum of electronic and zero-point Energies=           -912.441345
 Sum of electronic and thermal Energies=              -912.426462
 Sum of electronic and thermal Enthalpies=            -912.425518
 Sum of electronic and thermal Free Energies=         -912.486547

                     E (Thermal)             CV                S
                      KCal/Mol        Cal/Mol-Kelvin    Cal/Mol-Kelvin
 Total                  146.465             51.544            128.447
 Electronic               0.000              0.000              0.000
 Translational            0.889              2.981             41.601
 Rotational               0.889              2.981             32.118
 Vibrational            144.687             45.583             54.728
 Vibration     1          0.593              1.986              6.820
 Vibration     2          0.593              1.985              6.283
 Vibration     3          0.595              1.980              5.039
 Vibration     4          0.597              1.974              4.470
 Vibration     5          0.597              1.971              4.280
 Vibration     6          0.607              1.939              3.216
 Vibration     7          0.607              1.937              3.191
 Vibration     8          0.626              1.878              2.421
 Vibration     9          0.627              1.876              2.402
 Vibration    10          0.630              1.865              2.317
 Vibration    11          0.632              1.858              2.261
 Vibration    12          0.659              1.775              1.784
 Vibration    13          0.670              1.742              1.645
 Vibration    14          0.740              1.541              1.093
 Vibration    15          0.768              1.465              0.954
 Vibration    16          0.802              1.379              0.821
 Vibration    17          0.861              1.237              0.644
 Vibration    18          0.903              1.145              0.549
 Vibration    19          0.916              1.117              0.523
 Vibration    20          0.930              1.088              0.497

 Optimization completed.
    -- Stationary point found.
 Normal termination of Gaussian 09 at Thu Oct  8 00:26:44 2020.
