 Gaussian 09, Revision E.01,
 Gaussian 09:  EM64L-G09RevE.01 30-Nov-2015

 ---------------------------------------------------------------
 # opt=(calcall,tight,ts,noeigentest) freq b3lyp/6-31g(d) nosymm
 ---------------------------------------------------------------

 -------------------
 Title Card Required
 -------------------
 Symbolic Z-matrix:
 Charge =  0 Multiplicity = 1

 SCF Done:  E(RB3LYP) =  -1388.57011035     A.U. after   15 cycles
 SCF Done:  E(RB3LYP) =  -1388.57011035     A.U. after    4 cycles
 SCF Done:  E(RB3LYP) =  -1388.57011035     A.U. after    3 cycles
 SCF Done:  E(RB3LYP) =  -1388.57011035     A.U. after    4 cycles
 SCF Done:  E(RB3LYP) =  -1388.57011035     A.U. after    5 cycles
 SCF Done:  E(RB3LYP) =  -1388.57011035     A.U. after    4 cycles
 SCF Done:  E(RB3LYP) =  -1388.57011035     A.U. after    5 cycles
 SCF Done:  E(RB3LYP) =  -1388.57011035     A.U. after    4 cycles
 SCF Done:  E(RB3LYP) =  -1388.57011035     A.U. after    5 cycles
 SCF Done:  E(RB3LYP) =  -1388.57011035     A.U. after    4 cycles
 Optimization completed on the basis of negligible forces.
    -- Stationary point found.
 ******    1 imaginary frequencies (negative Signs) ******
    1 imaginary frequencies ignored.
 Normal termination of Gaussian 09 at Thu Mar 25 07:01:25 2021.

 --------------------------------------------------------------------
 #N Geom=AllCheck Guess=TCheck SCRF=Check GenChk RB3LYP/6-31G(d) Freq
 --------------------------------------------------------------------

 Structure from the checkpoint file:  "/localscratch/enas93.64623494.0/Gau-9990.chk"
 -------------------
 Title Card Required
 -------------------
 Charge =  0 Multiplicity = 1

                          Input orientation:
 ---------------------------------------------------------------------
 Center     Atomic      Atomic             Coordinates (Angstroms)
 Number     Number       Type             X           Y           Z
 ---------------------------------------------------------------------
      1          6           0       -1.019694    3.265232    2.696664
      2          6           0       -3.102331    3.033295    0.824606
      3          6           0       -3.184526    3.953896    1.813540
      4          7           0       -2.175266    4.075320    2.718300
      5          1           0       -3.889745    2.925520    0.089093
      6          1           0       -4.028146    4.625524    1.932155
      7          8           0       -0.161115    3.433696    3.554766
      8          7           0       -0.948104    2.329207    1.693644
      9          6           0       -1.917924    2.201999    0.766058
     10          7           0       -1.800860    1.301911   -0.206855
     11          1           0       -0.901146    0.778077   -0.446442
     12          1           0       -2.533304    1.276923   -0.902940
     13          1           0       -2.205890    4.757105    3.464699
     14          6           0       -0.293179   -1.670271   -2.128188
     15          1           0       -1.175355   -1.862410   -1.497739
     16          6           0        0.159035   -2.968519   -2.797131
     17          6           0        0.785802   -1.019440   -1.239453
     18          1           0        1.014835   -2.763502   -3.455053
     19          1           0        0.537044   -3.652851   -2.029306
     20          6           0       -0.952175   -3.658653   -3.610214
     21          8           0        0.501306    0.150286   -0.792040
     22          8           0        1.837055   -1.644959   -1.011327
     23          1           0       -1.789858   -3.863259   -2.918363
     24          6           0       -0.479432   -5.029588   -4.079566
     25          8           0       -0.532130   -5.411901   -5.229500
     26          7           0       -1.448434   -2.808615   -4.689379
     27          1           0       -0.648181   -2.502378   -5.244666
     28          1           0       -1.993603   -3.388415   -5.328574
     29          1           0       -0.620139   -0.941197   -2.877610
     30          1           0       -0.082142   -5.692712   -3.276291
     31         16           0        2.608980   -0.276464    2.449347
     32          6           0        3.603927    0.037162    0.954655
     33          1           0        3.106202   -0.520183    0.146133
     34          1           0        3.616979    1.107188    0.728682
     35          1           0        4.620154   -0.332524    1.117109
     36          6           0        0.722228    1.074107    2.012332
     37          1           0        0.101861    0.468335    2.657062
     38          1           0        1.192892    1.941676    2.448515
     39          1           0        0.794243    0.824539    0.954370
     40          6           0        3.466185    0.760844    3.682141
     41          1           0        2.894456    0.713908    4.612296
     42          1           0        4.473327    0.373915    3.858665
     43          1           0        3.522406    1.800129    3.345489
 ---------------------------------------------------------------------

 SCF Done:  E(RB3LYP) =  -1388.57011035     A.U. after    1 cycles

 Alpha  occ. eigenvalues --  -88.91187 -19.13864 -19.12323 -19.06309 -19.05528
 Alpha  occ. eigenvalues --  -14.41044 -14.35760 -14.35457 -14.30116 -10.32945
 Alpha  occ. eigenvalues --  -10.30472 -10.28009 -10.25911 -10.24005 -10.23978
 Alpha  occ. eigenvalues --  -10.22920 -10.22000 -10.20654 -10.20120 -10.16628
 Alpha  occ. eigenvalues --  -10.15382  -7.97222  -5.93642  -5.93297  -5.92857
 Alpha  occ. eigenvalues --   -1.06417  -1.03346  -0.99046  -0.98720  -0.96097
 Alpha  occ. eigenvalues --   -0.90284  -0.88852  -0.87469  -0.82127  -0.80168
 Alpha  occ. eigenvalues --   -0.75451  -0.71589  -0.70792  -0.68597  -0.67703
 Alpha  occ. eigenvalues --   -0.67026  -0.61146  -0.59628  -0.58828  -0.57566
 Alpha  occ. eigenvalues --   -0.55032  -0.54412  -0.50547  -0.48208  -0.47920
 Alpha  occ. eigenvalues --   -0.47539  -0.46647  -0.46438  -0.45980  -0.45474
 Alpha  occ. eigenvalues --   -0.44787  -0.44095  -0.43867  -0.43363  -0.42994
 Alpha  occ. eigenvalues --   -0.42472  -0.42141  -0.41519  -0.39547  -0.39327
 Alpha  occ. eigenvalues --   -0.39164  -0.37625  -0.37134  -0.36661  -0.36498
 Alpha  occ. eigenvalues --   -0.35389  -0.34307  -0.33159  -0.32352  -0.31938
 Alpha  occ. eigenvalues --   -0.30881  -0.28086  -0.26426  -0.25518  -0.25311
 Alpha  occ. eigenvalues --   -0.24872  -0.22294  -0.21763  -0.20981  -0.19655
 Alpha virt. eigenvalues --   -0.04936  -0.01836  -0.00864   0.00217   0.02925
 Alpha virt. eigenvalues --    0.04953   0.06361   0.08012   0.08352   0.08848
 Alpha virt. eigenvalues --    0.10396   0.10610   0.11957   0.12347   0.12891

 Mulliken charges:
               1
     1  C    0.756048
     2  C   -0.234957
     3  C    0.124169
     4  N   -0.628937
     5  H    0.153254
     6  H    0.180719
     7  O   -0.538497
     8  N   -0.608959
     9  C    0.601863
    10  N   -0.802103
    11  H    0.434398
    12  H    0.336839
    13  H    0.351830
    14  C   -0.352178
    15  H    0.128730
    16  C   -0.265396
    17  C    0.601302
    18  H    0.143684
    19  H    0.155053
    20  C   -0.051771
    21  O   -0.630374
    22  O   -0.558735
    23  H    0.142582
    24  C    0.240799
    25  O   -0.399273
    26  N   -0.705689
    27  H    0.296794
    28  H    0.304024
    29  H    0.156621
    30  H    0.098559
    31  S    0.245337
    32  C   -0.619037
    33  H    0.289086
    34  H    0.176707
    35  H    0.175964
    36  C   -0.429332
    37  H    0.211900
    38  H    0.229153
    39  H    0.294519
    40  C   -0.591396
    41  H    0.198850
    42  H    0.194009
    43  H    0.193841
 Sum of Mulliken charges =  -0.00000

 Dipole moment (field-independent basis, Debye):
    X=             -4.0935    Y=              7.0077    Z=              6.1299  Tot=             10.1705
 Quadrupole moment (field-independent basis, Debye-Ang):
   XX=           -104.2495   YY=           -129.8571   ZZ=           -141.2799
   XY=            -13.5172   XZ=              2.4642   YZ=             -9.9631

  Exact polarizability: 219.937 -45.635 196.385  32.632  51.050 201.419
 Approx polarizability: 307.830 -57.784 278.209  45.320  60.650 298.315

 ******    1 imaginary frequencies (negative Signs) ******

                      1                      2                      3
                      A                      A                      A
 Frequencies --   -430.6602                12.2652                15.4502
 Red. masses --     10.4931                 6.3887                 6.2540
 Frc consts  --      1.1466                 0.0006                 0.0009
 IR Inten    --    871.9056                 0.4413                 1.6687

                      4                      5                      6
                      A                      A                      A
 Frequencies --     23.8881                28.5249                43.2569
 Red. masses --      3.6455                 5.9012                 7.7601
 Frc consts  --      0.0012                 0.0028                 0.0086
 IR Inten    --      1.0328                 4.8366                 1.7804

                      7                      8                      9
                      A                      A                      A
 Frequencies --     49.1923                62.3358                64.0363
 Red. masses --      4.2117                 5.9373                 5.2597
 Frc consts  --      0.0060                 0.0136                 0.0127
 IR Inten    --      1.5201                 2.1401                 8.9110

                     10                     11                     12
                      A                      A                      A
 Frequencies --     77.4983                87.0204               102.2912
 Red. masses --      4.2753                 3.3970                 4.1381
 Frc consts  --      0.0151                 0.0152                 0.0255
 IR Inten    --      2.2640                 8.6648                 3.6742

                     13                     14                     15
                      A                      A                      A
 Frequencies --    113.3906               115.4931               128.9318
 Red. masses --      2.4086                 2.5046                 6.2526
 Frc consts  --      0.0182                 0.0197                 0.0612
 IR Inten    --      0.7196                 0.8296                19.5556

                     16                     17                     18
                      A                      A                      A
 Frequencies --    151.3556               153.3654               163.2860
 Red. masses --      4.0682                 2.0354                 3.6919
 Frc consts  --      0.0549                 0.0282                 0.0580
 IR Inten    --      8.6211                25.8236                 2.4486

                     19                     20                     21
                      A                      A                      A
 Frequencies --    177.8760               193.4067               198.5125
 Red. masses --      1.3177                 3.0536                 1.2299
 Frc consts  --      0.0246                 0.0673                 0.0286
 IR Inten    --      3.5644                43.4998                 1.1459

                     22                     23                     24
                      A                      A                      A
 Frequencies --    203.7347               230.7883               258.0194
 Red. masses --      2.1300                 3.8615                 3.9761
 Frc consts  --      0.0521                 0.1212                 0.1560
 IR Inten    --     13.2788                58.4588                 7.3887

                     25                     26                     27
                      A                      A                      A
 Frequencies --    281.5752               291.7625               297.5522
 Red. masses --      3.1477                 4.0277                 1.4449
 Frc consts  --      0.1470                 0.2020                 0.0754
 IR Inten    --      4.7139                22.8795                 7.3558

                     28                     29                     30
                      A                      A                      A
 Frequencies --    305.1845               330.8039               371.6436
 Red. masses --      2.2743                 4.4551                 3.7015
 Frc consts  --      0.1248                 0.2872                 0.3012
 IR Inten    --      3.1992                12.6751                26.4123

                     31                     32                     33
                      A                      A                      A
 Frequencies --    407.3477               439.3347               447.4346
 Red. masses --      3.3582                 4.9081                 2.4475
 Frc consts  --      0.3283                 0.5582                 0.2887
 IR Inten    --      5.0130                25.7744                 7.6757

                     34                     35                     36
                      A                      A                      A
 Frequencies --    517.5127               545.3910               548.1816
 Red. masses --      3.9059                 3.7331                 1.4421
 Frc consts  --      0.6163                 0.6542                 0.2553
 IR Inten    --     19.6077                38.0753               100.6210

                     37                     38                     39
                      A                      A                      A
 Frequencies --    565.5560               583.6475               587.0122
 Red. masses --      3.3721                 5.7388                 2.6058
 Frc consts  --      0.6355                 1.1518                 0.5290
 IR Inten    --     11.2923                 6.2535                14.2716

                     40                     41                     42
                      A                      A                      A
 Frequencies --    603.8100               676.5952               678.3153
 Red. masses --      1.1826                 5.2648                 5.2242
 Frc consts  --      0.2540                 1.4200                 1.4162
 IR Inten    --     29.4498                29.1297                13.7097

                     43                     44                     45
                      A                      A                      A
 Frequencies --    724.2157               731.6059               740.3071
 Red. masses --      2.1295                 6.8163                 3.7908
 Frc consts  --      0.6581                 2.1496                 1.2241
 IR Inten    --     30.1923                 0.1333                12.1421

                     46                     47                     48
                      A                      A                      A
 Frequencies --    761.2685               773.8177               778.7127
 Red. masses --     10.8327                 2.1323                 6.4843
 Frc consts  --      3.6988                 0.7523                 2.3167
 IR Inten    --     50.6331                35.3976                14.5136

                     49                     50                     51
                      A                      A                      A
 Frequencies --    796.8911               830.1010               922.0226
 Red. masses --      1.4629                 3.3832                 4.0990
 Frc consts  --      0.5474                 1.3735                 2.0531
 IR Inten    --      7.7591                22.5418                22.7389

                     52                     53                     54
                      A                      A                      A
 Frequencies --    949.1371               951.4474               953.6235
 Red. masses --      1.6381                 2.2279                 1.8649
 Frc consts  --      0.8695                 1.1883                 0.9992
 IR Inten    --     60.3926                13.8762                77.3545

                     55                     56                     57
                      A                      A                      A
 Frequencies --    959.2748               959.4927               981.7158
 Red. masses --      1.3955                 1.2033                 1.1771
 Frc consts  --      0.7566                 0.6527                 0.6684
 IR Inten    --      9.1210                 3.4815                 1.2134

                     58                     59                     60
                      A                      A                      A
 Frequencies --    989.8120              1010.7540              1013.2194
 Red. masses --      2.1495                 1.8832                 1.8556
 Frc consts  --      1.2408                 1.1336                 1.1224
 IR Inten    --     21.3835                43.7294                33.8823

                     61                     62                     63
                      A                      A                      A
 Frequencies --   1018.2093              1054.6673              1078.6308
 Red. masses --      1.2042                 1.8975                 1.0511
 Frc consts  --      0.7356                 1.2435                 0.7205
 IR Inten    --     12.4036                 7.3780                 5.4409

                     64                     65                     66
                      A                      A                      A
 Frequencies --   1099.3204              1100.1964              1119.8508
 Red. masses --      2.6260                 1.3755                 1.3163
 Frc consts  --      1.8698                 0.9809                 0.9726
 IR Inten    --      7.3746                27.4111                67.7279

                     67                     68                     69
                      A                      A                      A
 Frequencies --   1142.1182              1144.2243              1166.1588
 Red. masses --      1.3346                 1.2394                 1.3925
 Frc consts  --      1.0257                 0.9560                 1.1158
 IR Inten    --      4.2307                 1.7497               177.1937

                     70                     71                     72
                      A                      A                      A
 Frequencies --   1176.1671              1237.9611              1254.2418
 Red. masses --      2.1863                 1.1905                 1.3136
 Frc consts  --      1.7819                 1.0749                 1.2175
 IR Inten    --      5.3238                60.6644                29.2913

                     73                     74                     75
                      A                      A                      A
 Frequencies --   1257.2133              1291.3588              1292.6699
 Red. masses --      1.2273                 1.4058                 4.4172
 Frc consts  --      1.1430                 1.3813                 4.3489
 IR Inten    --     85.3251                 5.5611                56.7144

                     76                     77                     78
                      A                      A                      A
 Frequencies --   1321.2087              1347.4744              1381.9406
 Red. masses --      1.4456                 1.2866                 1.4856
 Frc consts  --      1.4868                 1.3764                 1.6716
 IR Inten    --     92.2472                 6.3287                50.8375

                     79                     80                     81
                      A                      A                      A
 Frequencies --   1386.5125              1392.3671              1399.8549
 Red. masses --      1.1575                 1.5742                 1.5180
 Frc consts  --      1.3110                 1.7981                 1.7526
 IR Inten    --      7.0338               162.0580                 0.6119

                     82                     83                     84
                      A                      A                      A
 Frequencies --   1401.3435              1417.4855              1425.9349
 Red. masses --      1.2175                 2.9932                 1.1496
 Frc consts  --      1.4086                 3.5434                 1.3772
 IR Inten    --     10.0610               392.5389                 4.5686

                     85                     86                     87
                      A                      A                      A
 Frequencies --   1431.1643              1453.1127              1455.9080
 Red. masses --      1.2697                 2.2584                 1.1708
 Frc consts  --      1.5322                 2.8096                 1.4622
 IR Inten    --     19.0124                63.2176                 5.3256

                     88                     89                     90
                      A                      A                      A
 Frequencies --   1492.7093              1493.9847              1498.8481
 Red. masses --      1.0447                 1.0513                 1.0913
 Frc consts  --      1.3715                 1.3825                 1.4445
 IR Inten    --     12.4092                 8.4748                 3.9462

                     91                     92                     93
                      A                      A                      A
 Frequencies --   1509.2860              1513.1892              1534.7056
 Red. masses --      1.0463                 1.0904                 1.0595
 Frc consts  --      1.4042                 1.4711                 1.4703
 IR Inten    --      3.4805                 6.1960                19.4714

                     94                     95                     96
                      A                      A                      A
 Frequencies --   1552.6732              1574.4026              1690.3933
 Red. masses --      4.1463                 3.9332                 7.7220
 Frc consts  --      5.8893                 5.7442                13.0004
 IR Inten    --    115.3544               157.7784               839.3471

                     97                     98                     99
                      A                      A                      A
 Frequencies --   1707.2874              1711.7081              1747.4031
 Red. masses --      1.0930                 3.9861                 1.4073
 Frc consts  --      1.8770                 6.8810                 2.5317
 IR Inten    --     43.4343                85.3606               417.9369

                    100                    101                    102
                      A                      A                      A
 Frequencies --   1788.1410              1822.8135              2647.6446
 Red. masses --      7.4183                10.3502                 1.1125
 Frc consts  --     13.9751                20.2621                 4.5948
 IR Inten    --    333.2368               175.6995              2536.7843

                    103                    104                    105
                      A                      A                      A
 Frequencies --   2891.8519              2968.8248              2994.8112
 Red. masses --      1.0840                 1.0812                 1.0456
 Frc consts  --      5.3411                 5.6149                 5.5255
 IR Inten    --    115.0571                33.0103               234.1237

                    106                    107                    108
                      A                      A                      A
 Frequencies --   3018.4005              3047.0988              3066.6864
 Red. masses --      1.0710                 1.0662                 1.0301
 Frc consts  --      5.7490                 5.8328                 5.7078
 IR Inten    --     20.3798                31.1333                29.0219

                    109                    110                    111
                      A                      A                      A
 Frequencies --   3077.9468              3086.9515              3105.4443
 Red. masses --      1.0249                 1.0902                 1.0965
 Frc consts  --      5.7206                 6.1211                 6.2303
 IR Inten    --    316.0341                 0.3600                36.3303

                    112                    113                    114
                      A                      A                      A
 Frequencies --   3116.4059              3151.5484              3154.4707
 Red. masses --      1.0920                 1.1073                 1.1080
 Frc consts  --      6.2485                 6.4801                 6.4960
 IR Inten    --    103.0273                 9.8064                 0.5682

                    115                    116                    117
                      A                      A                      A
 Frequencies --   3165.5110              3225.7772              3243.6566
 Red. masses --      1.1053                 1.0895                 1.0989
 Frc consts  --      6.5254                 6.6794                 6.8119
 IR Inten    --      3.3249                 1.7769                 5.2839

                    118                    119                    120
                      A                      A                      A
 Frequencies --   3299.1285              3357.0996              3448.1376
 Red. masses --      1.1117                 1.1216                 1.0504
 Frc consts  --      7.1294                 7.4475                 7.3579
 IR Inten    --    139.8612                15.1016                 0.4952

                    121                    122                    123
                      A                      A                      A
 Frequencies --   3524.8367              3624.8336              3635.6109
 Red. masses --      1.0902                 1.0787                 1.0782
 Frc consts  --      7.9806                 8.3510                 8.3968
 IR Inten    --      0.2564                94.3409                34.3329

 - Thermochemistry -
 -------------------
 Temperature   298.150 Kelvin.  Pressure   1.00000 Atm.
 Atom     1 has atomic number  6 and mass  12.00000

 Molecular mass:   318.13618 amu.
 Principal axes and moments of inertia in atomic units:
                           1         2         3
     Eigenvalues --  5595.96455********************
           X           -0.01351   0.89101  -0.45377
           Y            0.71214  -0.30999  -0.62989
           Z            0.70191   0.33166   0.63034
 This molecule is an asymmetric top.
 Rotational symmetry number  1.
 Warning -- assumption of classical behavior for rotation
           may cause significant error
 Rotational temperatures (Kelvin)      0.01548     0.00537     0.00409
 Rotational constants (GHZ):           0.32251     0.11198     0.08531
    1 imaginary frequencies ignored.
 Zero-point vibrational energy     919315.3 (Joules/Mol)
                                  219.72163 (Kcal/Mol)
 Warning -- explicit consideration of  39 degrees of freedom as
           vibrations may cause significant error
 Vibrational temperatures:     17.65    22.23    34.37    41.04    62.24
          (Kelvin)             70.78    89.69    92.13   111.50   125.20
                              147.17   163.14   166.17   185.50   217.77
                              220.66   234.93   255.92   278.27   285.61
                              293.13   332.05   371.23   405.12   419.78
                              428.11   439.09   475.95   534.71   586.08
                              632.10   643.76   744.58   784.69   788.71
                              813.71   839.74   844.58   868.75   973.47
                              975.94  1041.98  1052.62  1065.14  1095.29
                             1113.35  1120.39  1146.55  1194.33  1326.58
                             1365.59  1368.92  1372.05  1380.18  1380.49
                             1412.47  1424.12  1454.25  1457.79  1464.97
                             1517.43  1551.91  1581.67  1582.94  1611.21
                             1643.25  1646.28  1677.84  1692.24  1781.15
                             1804.57  1808.85  1857.97  1859.86  1900.92
                             1938.71  1988.30  1994.88  2003.30  2014.08
                             2016.22  2039.44  2051.60  2059.12  2090.70
                             2094.72  2147.67  2149.51  2156.51  2171.52
                             2177.14  2208.10  2233.95  2265.21  2432.10
                             2456.40  2462.76  2514.12  2572.73  2622.62
                             3809.37  4160.72  4271.47  4308.86  4342.80
                             4384.09  4412.27  4428.47  4441.43  4468.04
                             4483.81  4534.37  4538.57  4554.46  4641.17
                             4666.89  4746.70  4830.11  4961.09  5071.45
                             5215.32  5230.83

 Zero-point correction=                           0.350149 (Hartree/Particle)
 Thermal correction to Energy=                    0.375779
 Thermal correction to Enthalpy=                  0.376723
 Thermal correction to Gibbs Free Energy=         0.289143
 Sum of electronic and zero-point Energies=          -1388.219962
 Sum of electronic and thermal Energies=             -1388.194332
 Sum of electronic and thermal Enthalpies=           -1388.193388
 Sum of electronic and thermal Free Energies=        -1388.280967

                     E (Thermal)             CV                S
                      KCal/Mol        Cal/Mol-Kelvin    Cal/Mol-Kelvin
 Total                  235.805             89.087            184.327
 Electronic               0.000              0.000              0.000
 Translational            0.889              2.981             43.168
 Rotational               0.889              2.981             35.899
 Vibrational            234.027             83.125            105.260
 Vibration     1          0.593              1.987              7.605
 Vibration     2          0.593              1.986              7.147
 Vibration     3          0.593              1.985              6.282
 Vibration     4          0.593              1.984              5.929
 Vibration     5          0.595              1.980              5.104
 Vibration     6          0.595              1.978              4.850
 Vibration     7          0.597              1.972              4.382
 Vibration     8          0.597              1.971              4.329
 Vibration     9          0.599              1.964              3.953
 Vibration    10          0.601              1.958              3.726
 Vibration    11          0.604              1.947              3.410
 Vibration    12          0.607              1.938              3.210
 Vibration    13          0.608              1.937              3.174
 Vibration    14          0.611              1.924              2.962
 Vibration    15          0.619              1.901              2.655
 Vibration    16          0.619              1.899              2.630
 Vibration    17          0.623              1.888              2.511
 Vibration    18          0.628              1.870              2.351
 Vibration    19          0.635              1.849              2.195
 Vibration    20          0.637              1.842              2.147
 Vibration    21          0.639              1.835              2.099
 Vibration    22          0.652              1.794              1.873
 Vibration    23          0.667              1.749              1.675
 Vibration    24          0.681              1.708              1.524
 Vibration    25          0.687              1.689              1.464
 Vibration    26          0.691              1.678              1.431
 Vibration    27          0.696              1.664              1.388
 Vibration    28          0.713              1.614              1.256
 Vibration    29          0.743              1.530              1.073
 Vibration    30          0.772              1.454              0.936
 Vibration    31          0.799              1.384              0.829
 Vibration    32          0.807              1.367              0.804
 Vibration    33          0.873              1.211              0.616
 Vibration    34          0.901              1.150              0.554
 Vibration    35          0.903              1.144              0.548
 Vibration    36          0.921              1.106              0.513
 Vibration    37          0.941              1.067              0.479
 Vibration    38          0.944              1.059              0.473
 Vibration    39          0.962              1.024              0.443

 Normal termination of Gaussian 09 at Thu Mar 25 07:07:41 2021.
