 Gaussian 09, Revision E.01,
 Gaussian 09:  EM64L-G09RevE.01 30-Nov-2015

 ----------------------------------------------------
 # opt=(tight,modredundant) freq apfd/6-31g(d) nosymm
 ----------------------------------------------------

 -------------------
 Title Card Required
 -------------------
 Symbolic Z-matrix:
 Charge =  0 Multiplicity = 1

 SCF Done:  E(RAPFD) =  -1176.55314648     A.U. after   15 cycles
 SCF Done:  E(RAPFD) =  -1176.55102000     A.U. after   14 cycles
 SCF Done:  E(RAPFD) =  -1176.55322692     A.U. after   10 cycles
 SCF Done:  E(RAPFD) =  -1176.55231821     A.U. after   12 cycles
 SCF Done:  E(RAPFD) =  -1176.55338895     A.U. after   10 cycles
 SCF Done:  E(RAPFD) =  -1176.55333647     A.U. after   12 cycles
 SCF Done:  E(RAPFD) =  -1176.55347902     A.U. after    9 cycles
 SCF Done:  E(RAPFD) =  -1176.55349982     A.U. after   12 cycles
 SCF Done:  E(RAPFD) =  -1176.55356395     A.U. after   12 cycles
 SCF Done:  E(RAPFD) =  -1176.55336455     A.U. after   12 cycles
 SCF Done:  E(RAPFD) =  -1176.55581948     A.U. after    7 cycles
 SCF Done:  E(RAPFD) =  -1176.55581951     A.U. after    6 cycles
 SCF Done:  E(RAPFD) =  -1176.55581954     A.U. after    6 cycles
 SCF Done:  E(RAPFD) =  -1176.55581956     A.U. after    7 cycles
 SCF Done:  E(RAPFD) =  -1176.55581957     A.U. after    6 cycles
 SCF Done:  E(RAPFD) =  -1176.55581957     A.U. after    5 cycles
 SCF Done:  E(RAPFD) =  -1176.55581957     A.U. after    4 cycles
 SCF Done:  E(RAPFD) =  -1176.55581957     A.U. after    4 cycles
 SCF Done:  E(RAPFD) =  -1176.55581957     A.U. after    4 cycles
 Optimization completed.
    -- Stationary point found.
 Normal termination of Gaussian 09 at Wed Mar 24 04:13:23 2021.

 -------------------------------------------------------------------
 #N Geom=AllCheck Guess=TCheck SCRF=Check GenChk RAPFD/6-31G(d) Freq
 -------------------------------------------------------------------

 Structure from the checkpoint file:  "/localscratch/enas93.64551472.0/Gau-4334.chk"
 -------------------
 Title Card Required
 -------------------
 Charge =  0 Multiplicity = 1

                          Input orientation:
 ---------------------------------------------------------------------
 Center     Atomic      Atomic             Coordinates (Angstroms)
 Number     Number       Type             X           Y           Z
 ---------------------------------------------------------------------
      1          6           0       -1.649500   -0.702527   -0.245300
      2          8           0       -1.375667    0.163302    0.575011
      3          8           0       -2.764500   -0.707842   -0.981203
      4          8           0       -0.902043   -1.750163   -0.543940
      5          1           0       -3.215704    0.150807   -0.807761
      6          6           0        3.986256    0.479605   -0.331203
      7          6           0        3.992851   -2.170254    0.668920
      8          6           0        5.147409   -1.518540    0.436315
      9          7           0        5.142283   -0.243399   -0.051048
     10          1           0        3.989893   -3.184184    1.050044
     11          1           0        6.124288   -1.955829    0.614098
     12          8           0        4.046414    1.618077   -0.755905
     13          7           0        2.806189   -0.205237   -0.082156
     14          6           0        2.728197   -1.515608    0.392947
     15          7           0        1.560884   -2.042861    0.552792
     16          1           0       -0.036642   -1.725141   -0.032139
     17          1           0        1.645560   -2.991640    0.909575
     18          1           0        5.998789    0.259232   -0.233019
     19         16           0       -3.681496    2.334320   -0.494370
     20          6           0       -5.405582    2.794003   -0.814130
     21          1           0       -6.098610    2.047398   -0.412959
     22          1           0       -5.638088    3.774302   -0.386033
     23          1           0       -5.533545    2.846832   -1.898414
     24          6           0       -3.695749    2.251597    1.315430
     25          1           0       -3.790968    3.248358    1.756690
     26          1           0       -4.510507    1.611350    1.669478
     27          1           0       -2.743989    1.798143    1.598560
     28          6           0        1.550657    0.495197   -0.320644
     29          1           0        0.912172    0.433463    0.560716
     30          1           0        1.024367    0.034531   -1.160518
     31          1           0        1.785224    1.530733   -0.557497
 ---------------------------------------------------------------------

 SCF Done:  E(RAPFD) =  -1176.55581957     A.U. after    1 cycles

 Alpha  occ. eigenvalues --  -88.95950 -19.19920 -19.19146 -19.17307 -19.14488
 Alpha  occ. eigenvalues --  -14.44503 -14.43533 -14.35800 -10.36182 -10.35283
 Alpha  occ. eigenvalues --  -10.31341 -10.29789 -10.23979 -10.23360 -10.22475
 Alpha  occ. eigenvalues --  -10.22265  -7.97573  -5.92348  -5.91970  -5.91324
 Alpha  occ. eigenvalues --   -1.12456  -1.09864  -1.02941  -1.01392  -0.99587
 Alpha  occ. eigenvalues --   -0.98569  -0.90969  -0.81552  -0.81318  -0.74856
 Alpha  occ. eigenvalues --   -0.71681  -0.68500  -0.66787  -0.64159  -0.60798
 Alpha  occ. eigenvalues --   -0.59921  -0.57632  -0.52280  -0.50723  -0.50224
 Alpha  occ. eigenvalues --   -0.49718  -0.47624  -0.47034  -0.45707  -0.45382
 Alpha  occ. eigenvalues --   -0.44960  -0.44650  -0.43902  -0.43349  -0.43201
 Alpha  occ. eigenvalues --   -0.41582  -0.41185  -0.39473  -0.38974  -0.37077
 Alpha  occ. eigenvalues --   -0.36553  -0.36074  -0.32234  -0.31323  -0.30541
 Alpha  occ. eigenvalues --   -0.29499  -0.28743  -0.27244  -0.26081  -0.25021
 Alpha  occ. eigenvalues --   -0.23421
 Alpha virt. eigenvalues --   -0.03955   0.01261   0.05150   0.06002   0.07986
 Alpha virt. eigenvalues --    0.09128   0.10521   0.10835   0.11795   0.11917
 Alpha virt. eigenvalues --    0.14248   0.14670   0.15573   0.16109   0.16977

 Mulliken charges:
               1
     1  C    0.713836
     2  O   -0.524026
     3  O   -0.602781
     4  O   -0.617811
     5  H    0.457114
     6  C    0.824050
     7  C   -0.293853
     8  C    0.102364
     9  N   -0.701989
    10  H    0.193062
    11  H    0.212940
    12  O   -0.510420
    13  N   -0.583923
    14  C    0.608862
    15  N   -0.759333
    16  H    0.492281
    17  H    0.326046
    18  H    0.382046
    19  S    0.089289
    20  C   -0.665859
    21  H    0.203516
    22  H    0.204725
    23  H    0.213660
    24  C   -0.676406
    25  H    0.198280
    26  H    0.196378
    27  H    0.260374
    28  C   -0.419821
    29  H    0.244978
    30  H    0.204957
    31  H    0.227463
 Sum of Mulliken charges =  -0.00000

 Dipole moment (field-independent basis, Debye):
    X=              3.9447    Y=             -1.4771    Z=              2.2022  Tot=              4.7531
 Quadrupole moment (field-independent basis, Debye-Ang):
   XX=            -50.9778   YY=            -98.4806   ZZ=           -102.9036
   XY=            -27.1384   XZ=              3.0415   YZ=             -2.7993

  Exact polarizability: 176.783  -7.564 138.710   5.491 -14.267  93.105
 Approx polarizability: 232.146  18.032 209.902   1.959 -21.238 140.332

                      1                      2                      3
                      A                      A                      A
 Frequencies --     13.6365                17.7568                25.6412
 Red. masses --      4.8731                 4.8562                 3.5115
 Frc consts  --      0.0005                 0.0009                 0.0014
 IR Inten    --      2.9818                 2.6460                 1.0616

                      4                      5                      6
                      A                      A                      A
 Frequencies --     43.9746                50.9378                69.6253
 Red. masses --      5.7416                 4.6183                 5.2815
 Frc consts  --      0.0065                 0.0071                 0.0151
 IR Inten    --      0.5118                 0.7467                 0.5855

                      7                      8                      9
                      A                      A                      A
 Frequencies --     81.6943               103.9021               109.9015
 Red. masses --      5.2217                 4.1089                 4.9873
 Frc consts  --      0.0205                 0.0261                 0.0355
 IR Inten    --      0.3331                 0.7254                 4.4592

                     10                     11                     12
                      A                      A                      A
 Frequencies --    128.6795               141.8242               153.8963
 Red. masses --      8.8025                 7.0867                 6.2540
 Frc consts  --      0.0859                 0.0840                 0.0873
 IR Inten    --      0.4886                 1.2057                 0.7682

                     13                     14                     15
                      A                      A                      A
 Frequencies --    162.2227               185.7918               193.5371
 Red. masses --      5.1159                 1.1838                 1.5601
 Frc consts  --      0.0793                 0.0241                 0.0344
 IR Inten    --      1.9645                 1.7802                 9.2115

                     16                     17                     18
                      A                      A                      A
 Frequencies --    211.5432               234.0061               260.7266
 Red. masses --      2.2017                 3.4852                 1.0954
 Frc consts  --      0.0581                 0.1124                 0.0439
 IR Inten    --     25.9859                11.2443                 0.1791

                     19                     20                     21
                      A                      A                      A
 Frequencies --    276.1399               396.6315               420.3152
 Red. masses --      2.5207                 2.9203                 3.6886
 Frc consts  --      0.1132                 0.2707                 0.3839
 IR Inten    --      2.5634                 5.4615                 9.3187

                     22                     23                     24
                      A                      A                      A
 Frequencies --    426.2452               523.4068               551.2900
 Red. masses --      5.6398                 7.8354                 6.4917
 Frc consts  --      0.6037                 1.2647                 1.1624
 IR Inten    --     33.9464                14.3959                 4.7863

                     25                     26                     27
                      A                      A                      A
 Frequencies --    563.4221               584.9459               641.1223
 Red. masses --      1.1714                 4.3279                 5.5898
 Frc consts  --      0.2191                 0.8725                 1.3537
 IR Inten    --     73.1133                13.3395                43.7786

                     28                     29                     30
                      A                      A                      A
 Frequencies --    657.7678               712.2051               714.4388
 Red. masses --      5.8878                 2.0622                 4.7359
 Frc consts  --      1.5009                 0.6163                 1.4242
 IR Inten    --     19.4997                11.1021                 6.5786

                     31                     32                     33
                      A                      A                      A
 Frequencies --    723.0425               746.6503               758.9261
 Red. masses --      5.2451                 3.3378                 1.1859
 Frc consts  --      1.6156                 1.0963                 0.4024
 IR Inten    --      1.3374                11.8955                32.2678

                     34                     35                     36
                      A                      A                      A
 Frequencies --    763.9634               771.0663               818.7262
 Red. masses --      2.6019                 5.6645                 1.9204
 Frc consts  --      0.8947                 1.9842                 0.7584
 IR Inten    --     10.9417                 1.6475                59.7639

                     37                     38                     39
                      A                      A                      A
 Frequencies --    820.1361               875.9213               941.7612
 Red. masses --      2.7104                 5.8763                 1.1898
 Frc consts  --      1.0741                 2.6563                 0.6217
 IR Inten    --    100.8609                 6.3815                 1.5932

                     40                     41                     42
                      A                      A                      A
 Frequencies --    957.7792               989.2429              1008.2549
 Red. masses --      1.2725                 1.3918                 1.1714
 Frc consts  --      0.6878                 0.8025                 0.7016
 IR Inten    --      0.4980                87.7165                 0.3692

                     43                     44                     45
                      A                      A                      A
 Frequencies --   1030.0797              1045.2681              1066.4472
 Red. masses --      1.6773                 1.2271                 5.2121
 Frc consts  --      1.0486                 0.7899                 3.4925
 IR Inten    --     44.5997                10.0836                27.7542

                     46                     47                     48
                      A                      A                      A
 Frequencies --   1088.3069              1120.9693              1150.5358
 Red. masses --      1.3873                 2.5364                 1.6315
 Frc consts  --      0.9681                 1.8778                 1.2725
 IR Inten    --     39.7185                17.9125               131.1989

                     49                     50                     51
                      A                      A                      A
 Frequencies --   1161.1761              1195.1344              1251.6119
 Red. masses --      1.3754                 1.8888                 1.6846
 Frc consts  --      1.0926                 1.5896                 1.5549
 IR Inten    --     75.6091                 1.0067                34.0988

                     52                     53                     54
                      A                      A                      A
 Frequencies --   1279.6580              1304.6105              1367.9317
 Red. masses --      1.6692                 1.7295                 3.9445
 Frc consts  --      1.6105                 1.7344                 4.3489
 IR Inten    --    344.1368               434.1230                27.6024

                     55                     56                     57
                      A                      A                      A
 Frequencies --   1383.8407              1407.0147              1410.1411
 Red. masses --      1.1543                 1.1952                 1.2370
 Frc consts  --      1.3024                 1.3941                 1.4492
 IR Inten    --     36.8249                31.9082                80.1688

                     58                     59                     60
                      A                      A                      A
 Frequencies --   1425.0181              1456.0405              1494.7418
 Red. masses --      1.4904                 1.3211                 1.0507
 Frc consts  --      1.7832                 1.6502                 1.3831
 IR Inten    --      3.4758                 4.3411                 1.4519

                     61                     62                     63
                      A                      A                      A
 Frequencies --   1499.3267              1502.8368              1508.8836
 Red. masses --      1.9674                 1.0551                 1.0510
 Frc consts  --      2.6058                 1.4040                 1.4099
 IR Inten    --     38.8858                26.7839                26.2097

                     64                     65                     66
                      A                      A                      A
 Frequencies --   1514.3058              1523.3158              1529.4614
 Red. masses --      1.0461                 1.1901                 1.1749
 Frc consts  --      1.4133                 1.6270                 1.6193
 IR Inten    --      1.1481                77.9776                74.8952

                     67                     68                     69
                      A                      A                      A
 Frequencies --   1551.6270              1564.8632              1676.9684
 Red. masses --      3.2974                 1.6112                 7.6691
 Frc consts  --      4.6773                 2.3247                12.7070
 IR Inten    --     78.3581               110.1471               157.1147

                     70                     71                     72
                      A                      A                      A
 Frequencies --   1742.7912              1818.6613              1845.8805
 Red. masses --      6.5649                 7.6517                 8.8704
 Frc consts  --     11.7481                14.9112                17.8075
 IR Inten    --    472.8424               450.2548               471.3321

                     73                     74                     75
                      A                      A                      A
 Frequencies --   3075.6482              3080.6303              3093.0961
 Red. masses --      1.0310                 1.0319                 1.0767
 Frc consts  --      5.7461                 5.7697                 6.0691
 IR Inten    --     95.2327                48.5405              2414.4616

                     76                     77                     78
                      A                      A                      A
 Frequencies --   3109.6337              3163.1998              3168.6838
 Red. masses --      1.0363                 1.1058                 1.1064
 Frc consts  --      5.9043                 6.5188                 6.5450
 IR Inten    --      3.0152                21.1948                 1.2125

                     79                     80                     81
                      A                      A                      A
 Frequencies --   3176.8165              3196.1809              3207.3128
 Red. masses --      1.1046                 1.1017                 1.1033
 Frc consts  --      6.5681                 6.6311                 6.6871
 IR Inten    --      5.8041                16.1921                 2.8011

                     82                     83                     84
                      A                      A                      A
 Frequencies --   3239.0589              3246.8034              3268.4488
 Red. masses --      1.1056                 1.0902                 1.0986
 Frc consts  --      6.8340                 6.7715                 6.9148
 IR Inten    --     11.4035                 2.4654                 0.8712

                     85                     86                     87
                      A                      A                      A
 Frequencies --   3467.9699              3555.5761              3673.1002
 Red. masses --      1.0679                 1.0752                 1.0786
 Frc consts  --      7.5674                 8.0090                 8.5738
 IR Inten    --    956.8504                 6.5943               118.1588

 - Thermochemistry -
 -------------------
 Temperature   298.150 Kelvin.  Pressure   1.00000 Atm.
 Atom     1 has atomic number  6 and mass  12.00000

 Molecular mass:   249.07833 amu.
 Principal axes and moments of inertia in atomic units:
                           1         2         3
     Eigenvalues --  1912.95456********************
           X            0.95476   0.29719  -0.01000
           Y           -0.29443   0.94952   0.10827
           Z            0.04168  -0.10043   0.99407
 This molecule is an asymmetric top.
 Rotational symmetry number  1.
 Warning -- assumption of classical behavior for rotation
           may cause significant error
 Rotational temperatures (Kelvin)      0.04528     0.00732     0.00663
 Rotational constants (GHZ):           0.94343     0.15252     0.13811
 Zero-point vibrational energy     654789.8 (Joules/Mol)
                                  156.49852 (Kcal/Mol)
 Warning -- explicit consideration of  26 degrees of freedom as
           vibrations may cause significant error
 Vibrational temperatures:     19.62    25.55    36.89    63.27    73.29
          (Kelvin)            100.18   117.54   149.49   158.12   185.14
                              204.05   221.42   233.40   267.31   278.46
                              304.36   336.68   375.13   397.30   570.66
                              604.74   613.27   753.06   793.18   810.64
                              841.61   922.43   946.38  1024.70  1027.92
                             1040.30  1074.26  1091.92  1099.17  1109.39
                             1177.96  1179.99  1260.25  1354.98  1378.03
                             1423.30  1450.65  1482.05  1503.91  1534.38
                             1565.83  1612.82  1655.36  1670.67  1719.53
                             1800.79  1841.14  1877.04  1968.15  1991.04
                             2024.38  2028.88  2050.28  2094.91  2150.60
                             2157.19  2162.24  2170.94  2178.75  2191.71
                             2200.55  2232.44  2251.49  2412.78  2507.48
                             2616.64  2655.81  4425.17  4432.33  4450.27
                             4474.06  4551.13  4559.02  4570.72  4598.59
                             4614.60  4660.28  4671.42  4702.56  4989.63
                             5115.67  5284.77

 Zero-point correction=                           0.249396 (Hartree/Particle)
 Thermal correction to Energy=                    0.268627
 Thermal correction to Enthalpy=                  0.269571
 Thermal correction to Gibbs Free Energy=         0.196846
 Sum of electronic and zero-point Energies=          -1176.306423
 Sum of electronic and thermal Energies=             -1176.287192
 Sum of electronic and thermal Enthalpies=           -1176.286248
 Sum of electronic and thermal Free Energies=        -1176.358974

                     E (Thermal)             CV                S
                      KCal/Mol        Cal/Mol-Kelvin    Cal/Mol-Kelvin
 Total                  168.566             65.513            153.064
 Electronic               0.000              0.000              0.000
 Translational            0.889              2.981             42.438
 Rotational               0.889              2.981             34.047
 Vibrational            166.789             59.551             76.578
 Vibration     1          0.593              1.986              7.395
 Vibration     2          0.593              1.986              6.870
 Vibration     3          0.593              1.985              6.141
 Vibration     4          0.595              1.980              5.071
 Vibration     5          0.595              1.977              4.781
 Vibration     6          0.598              1.969              4.164
 Vibration     7          0.600              1.962              3.850
 Vibration     8          0.605              1.946              3.380
 Vibration     9          0.606              1.941              3.271
 Vibration    10          0.611              1.925              2.966
 Vibration    11          0.615              1.911              2.779
 Vibration    12          0.619              1.898              2.623
 Vibration    13          0.622              1.889              2.524
 Vibration    14          0.632              1.859              2.269
 Vibration    15          0.635              1.849              2.194
 Vibration    16          0.643              1.823              2.030
 Vibration    17          0.654              1.789              1.848
 Vibration    18          0.669              1.745              1.657
 Vibration    19          0.678              1.718              1.557
 Vibration    20          0.763              1.477              0.975
 Vibration    21          0.783              1.426              0.891
 Vibration    22          0.788              1.413              0.871
 Vibration    23          0.878              1.198              0.602
 Vibration    24          0.907              1.137              0.542
 Vibration    25          0.919              1.110              0.517
 Vibration    26          0.942              1.064              0.476

 Normal termination of Gaussian 09 at Wed Mar 24 04:16:21 2021.
