 Gaussian 09, Revision E.01,
 Gaussian 09:  EM64L-G09RevE.01 30-Nov-2015

 --------------------------------------
 # opt=tight freq b3lyp/6-31g(d) nosymm
 --------------------------------------

 -------------------
 Title Card Required
 -------------------
 Symbolic Z-matrix:
 Charge =  0 Multiplicity = 1

 SCF Done:  E(RB3LYP) =  -1388.63369255     A.U. after   16 cycles
 SCF Done:  E(RB3LYP) =  -1388.63452073     A.U. after   15 cycles
 SCF Done:  E(RB3LYP) =  -1388.63481684     A.U. after   15 cycles
 SCF Done:  E(RB3LYP) =  -1388.63509783     A.U. after   15 cycles
 SCF Done:  E(RB3LYP) =  -1388.63483485     A.U. after   13 cycles
 SCF Done:  E(RB3LYP) =  -1388.63555582     A.U. after   13 cycles
 SCF Done:  E(RB3LYP) =  -1388.63585613     A.U. after   12 cycles
 SCF Done:  E(RB3LYP) =  -1388.63471988     A.U. after   15 cycles
 SCF Done:  E(RB3LYP) =  -1388.63607418     A.U. after   11 cycles
 SCF Done:  E(RB3LYP) =  -1388.63620306     A.U. after   14 cycles
 SCF Done:  E(RB3LYP) =  -1388.63643195     A.U. after    5 cycles
 SCF Done:  E(RB3LYP) =  -1388.63643195     A.U. after    5 cycles
 SCF Done:  E(RB3LYP) =  -1388.63643195     A.U. after    6 cycles
 SCF Done:  E(RB3LYP) =  -1388.63643195     A.U. after    4 cycles
 SCF Done:  E(RB3LYP) =  -1388.63643195     A.U. after    5 cycles
 SCF Done:  E(RB3LYP) =  -1388.63643195     A.U. after    4 cycles
 SCF Done:  E(RB3LYP) =  -1388.63643195     A.U. after    4 cycles
 SCF Done:  E(RB3LYP) =  -1388.63643195     A.U. after    4 cycles
 SCF Done:  E(RB3LYP) =  -1388.63643195     A.U. after    4 cycles
 Optimization completed.
    -- Stationary point found.
 Normal termination of Gaussian 09 at Thu Mar 25 03:21:50 2021.

 --------------------------------------------------------------------
 #N Geom=AllCheck Guess=TCheck SCRF=Check GenChk RB3LYP/6-31G(d) Freq
 --------------------------------------------------------------------

 Structure from the checkpoint file:  "/localscratch/enas93.64619565.0/Gau-11166.chk"
 -------------------
 Title Card Required
 -------------------
 Charge =  0 Multiplicity = 1

                          Input orientation:
 ---------------------------------------------------------------------
 Center     Atomic      Atomic             Coordinates (Angstroms)
 Number     Number       Type             X           Y           Z
 ---------------------------------------------------------------------
      1          6           0       -1.892533    3.339911    2.547505
      2          6           0       -3.382107    2.542125    0.270554
      3          6           0       -3.919082    3.372297    1.185947
      4          7           0       -3.197521    3.756908    2.285360
      5          1           0       -3.943510    2.233183   -0.601993
      6          1           0       -4.923353    3.774180    1.109963
      7          8           0       -1.305883    3.718930    3.545520
      8          7           0       -1.350165    2.480997    1.591665
      9          6           0       -2.025871    2.046623    0.443288
     10          7           0       -1.415692    1.248502   -0.374868
     11          1           0        0.202523    0.558313   -0.552832
     12          1           0       -2.024925    1.019715   -1.159632
     13          1           0       -3.581308    4.378950    2.983135
     14          6           0       -0.086313   -1.467639   -1.881471
     15          1           0       -0.777414   -1.609353   -1.038465
     16          6           0        0.091148   -2.770101   -2.660477
     17          6           0        1.228160   -0.921783   -1.332342
     18          1           0        0.800054   -2.608875   -3.482544
     19          1           0        0.550135   -3.526646   -2.013696
     20          6           0       -1.239658   -3.303063   -3.226115
     21          8           0        1.142302    0.219058   -0.639554
     22          8           0        2.297514   -1.474417   -1.500617
     23          1           0       -1.927852   -3.454546   -2.376757
     24          6           0       -1.021862   -4.684993   -3.836944
     25          8           0       -1.311221   -4.970453   -4.978435
     26          7           0       -1.852987   -2.342864   -4.139979
     27          1           0       -1.240196   -2.240914   -4.950640
     28          1           0       -2.705398   -2.754151   -4.520779
     29          1           0       -0.552275   -0.710483   -2.522937
     30          1           0       -0.571148   -5.441485   -3.154182
     31         16           0        3.199866   -0.060451    2.513457
     32          6           0        4.353723   -0.330806    1.123666
     33          1           0        3.750563   -0.542861    0.236929
     34          1           0        4.964398    0.560059    0.944475
     35          1           0        5.004859   -1.187664    1.325186
     36          6           0        0.023382    2.007150    1.817001
     37          1           0        0.039192    0.917006    1.864763
     38          1           0        0.372173    2.429556    2.755322
     39          1           0        0.669290    2.325437    0.996336
     40          6           0        4.398455    0.177311    3.870815
     41          1           0        3.826009    0.351098    4.786231
     42          1           0        5.021930   -0.712077    4.009800
     43          1           0        5.039943    1.045626    3.687935
 ---------------------------------------------------------------------

 SCF Done:  E(RB3LYP) =  -1388.63643195     A.U. after    1 cycles

 Alpha  occ. eigenvalues --  -88.84953 -19.15571 -19.15427 -19.13810 -19.11070
 Alpha  occ. eigenvalues --  -14.41556 -14.40563 -14.33186 -14.32281 -10.34662
 Alpha  occ. eigenvalues --  -10.29832 -10.29642 -10.28039 -10.27664 -10.22890
 Alpha  occ. eigenvalues --  -10.22242 -10.21349 -10.19427 -10.19347 -10.19331
 Alpha  occ. eigenvalues --  -10.17923  -7.91015  -5.87549  -5.87175  -5.86457
 Alpha  occ. eigenvalues --   -1.08308  -1.06731  -1.05090  -0.99929  -0.98585
 Alpha  occ. eigenvalues --   -0.97124  -0.89849  -0.89647  -0.80540  -0.78704
 Alpha  occ. eigenvalues --   -0.77104  -0.73884  -0.71727  -0.68167  -0.67612
 Alpha  occ. eigenvalues --   -0.66157  -0.63026  -0.59469  -0.58222  -0.57630
 Alpha  occ. eigenvalues --   -0.57101  -0.56866  -0.51238  -0.50594  -0.50514
 Alpha  occ. eigenvalues --   -0.49579  -0.49349  -0.47156  -0.46866  -0.46599
 Alpha  occ. eigenvalues --   -0.45139  -0.44968  -0.43163  -0.43090  -0.42738
 Alpha  occ. eigenvalues --   -0.41879  -0.41746  -0.41465  -0.40485  -0.39863
 Alpha  occ. eigenvalues --   -0.39564  -0.38751  -0.38716  -0.38630  -0.37451
 Alpha  occ. eigenvalues --   -0.36134  -0.35494  -0.34614  -0.34098  -0.33977
 Alpha  occ. eigenvalues --   -0.30095  -0.29218  -0.29174  -0.28555  -0.27427
 Alpha  occ. eigenvalues --   -0.27127  -0.25070  -0.24766  -0.24118  -0.19920
 Alpha virt. eigenvalues --   -0.04955  -0.02625   0.00147   0.03405   0.04415
 Alpha virt. eigenvalues --    0.06337   0.07629   0.08651   0.09687   0.10112
 Alpha virt. eigenvalues --    0.10429   0.10726   0.11427   0.12740   0.13081

 Mulliken charges:
               1
     1  C    0.779292
     2  C   -0.239482
     3  C    0.113932
     4  N   -0.648258
     5  H    0.157109
     6  H    0.182012
     7  O   -0.501693
     8  N   -0.540797
     9  C    0.582494
    10  N   -0.740175
    11  H    0.480391
    12  H    0.307923
    13  H    0.358850
    14  C   -0.385993
    15  H    0.162888
    16  C   -0.267450
    17  C    0.613782
    18  H    0.160355
    19  H    0.161238
    20  C   -0.061513
    21  O   -0.629793
    22  O   -0.480413
    23  H    0.148187
    24  C    0.241154
    25  O   -0.389472
    26  N   -0.705145
    27  H    0.304061
    28  H    0.307703
    29  H    0.183615
    30  H    0.104823
    31  S    0.070730
    32  C   -0.597906
    33  H    0.233584
    34  H    0.162525
    35  H    0.163052
    36  C   -0.332855
    37  H    0.195145
    38  H    0.211468
    39  H    0.196402
    40  C   -0.577441
    41  H    0.174640
    42  H    0.170576
    43  H    0.170455
 Sum of Mulliken charges =  -0.00000

 Dipole moment (field-independent basis, Debye):
    X=             -7.2209    Y=              3.5768    Z=              1.2537  Tot=              8.1552
 Quadrupole moment (field-independent basis, Debye-Ang):
   XX=           -106.6904   YY=           -129.6251   ZZ=           -146.5717
   XY=            -16.4588   XZ=             -1.1744   YZ=            -10.9582

  Exact polarizability: 191.347 -27.549 168.918  13.007  51.471 196.109
 Approx polarizability: 264.728 -38.213 235.886   5.948  69.551 296.170

                      1                      2                      3
                      A                      A                      A
 Frequencies --      2.6256                 8.6251                15.7808
 Red. masses --      5.2681                 6.0266                 5.8220
 Frc consts  --      0.0000                 0.0003                 0.0009
 IR Inten    --      2.0407                 1.2556                 0.2946

                      4                      5                      6
                      A                      A                      A
 Frequencies --     24.8127                25.9658                26.6729
 Red. masses --      3.8655                 5.8835                 3.0770
 Frc consts  --      0.0014                 0.0023                 0.0013
 IR Inten    --      0.4977                 1.5416                 2.2886

                      7                      8                      9
                      A                      A                      A
 Frequencies --     34.9036                39.1418                53.7679
 Red. masses --      4.9319                 7.0740                 3.3893
 Frc consts  --      0.0035                 0.0064                 0.0058
 IR Inten    --      0.1042                 0.7189                 1.7042

                     10                     11                     12
                      A                      A                      A
 Frequencies --     58.3207                64.0560                74.8547
 Red. masses --      5.3325                 5.4268                 4.2314
 Frc consts  --      0.0107                 0.0131                 0.0140
 IR Inten    --      5.1957                 5.6463                 4.0254

                     13                     14                     15
                      A                      A                      A
 Frequencies --     84.1267                96.0271               117.8043
 Red. masses --      3.4924                 6.9037                 4.9191
 Frc consts  --      0.0146                 0.0375                 0.0402
 IR Inten    --      3.4901                 1.1020                 4.2343

                     16                     17                     18
                      A                      A                      A
 Frequencies --    122.1959               127.0048               159.4395
 Red. masses --      3.3234                 1.8943                 5.5873
 Frc consts  --      0.0292                 0.0180                 0.0837
 IR Inten    --     14.0063                 8.3145                 0.4333

                     19                     20                     21
                      A                      A                      A
 Frequencies --    177.5579               185.6362               190.4425
 Red. masses --      2.8108                 1.0712                 1.1720
 Frc consts  --      0.0522                 0.0217                 0.0250
 IR Inten    --     28.1834                 0.5105                 1.6933

                     22                     23                     24
                      A                      A                      A
 Frequencies --    215.2115               229.7806               230.1926
 Red. masses --      1.6096                 1.0929                 2.9333
 Frc consts  --      0.0439                 0.0340                 0.0916
 IR Inten    --      8.2931                 1.1979                 7.1941

                     25                     26                     27
                      A                      A                      A
 Frequencies --    257.5613               275.1330               286.3584
 Red. masses --      5.2607                 2.6031                 3.8139
 Frc consts  --      0.2056                 0.1161                 0.1843
 IR Inten    --      3.5293                 1.3429                14.2967

                     28                     29                     30
                      A                      A                      A
 Frequencies --    332.9041               373.6844               416.3562
 Red. masses --      4.2416                 3.0775                 3.5253
 Frc consts  --      0.2770                 0.2532                 0.3601
 IR Inten    --      5.1650                 5.4791                12.0460

                     31                     32                     33
                      A                      A                      A
 Frequencies --    421.6129               447.1447               513.3805
 Red. masses --      5.8122                 2.4554                 4.7313
 Frc consts  --      0.6087                 0.2892                 0.7347
 IR Inten    --     27.5391                11.7862                17.6989

                     34                     35                     36
                      A                      A                      A
 Frequencies --    518.3475               554.1172               556.7042
 Red. masses --      5.5497                 4.9389                 2.5709
 Frc consts  --      0.8785                 0.8935                 0.4694
 IR Inten    --      3.8312                14.2588                 1.5831

                     37                     38                     39
                      A                      A                      A
 Frequencies --    559.8643               586.4086               657.8559
 Red. masses --      1.2072                 4.0267                 5.9377
 Frc consts  --      0.2230                 0.8158                 1.5140
 IR Inten    --     74.4670                13.4807                26.5100

                     40                     41                     42
                      A                      A                      A
 Frequencies --    686.5310               708.7255               711.7830
 Red. masses --      5.1546                 2.2146                 5.1992
 Frc consts  --      1.4314                 0.6554                 1.5520
 IR Inten    --      3.3587                10.9891                 0.2717

                     43                     44                     45
                      A                      A                      A
 Frequencies --    732.2580               738.1867               738.2696
 Red. masses --      3.5495                 5.0174                 6.5228
 Frc consts  --      1.1214                 1.6109                 2.0947
 IR Inten    --      3.9182                15.1782                 2.1667

                     46                     47                     48
                      A                      A                      A
 Frequencies --    757.8719               793.7793               814.0068
 Red. masses --      1.9474                 1.3990                 1.3189
 Frc consts  --      0.6590                 0.5193                 0.5149
 IR Inten    --      3.3647                11.2059                84.8499

                     49                     50                     51
                      A                      A                      A
 Frequencies --    829.9365               867.4302               898.6369
 Red. masses --      3.3575                 5.7096                 1.2382
 Frc consts  --      1.3625                 2.5312                 0.5891
 IR Inten    --     21.5976                 9.2470                72.9000

                     52                     53                     54
                      A                      A                      A
 Frequencies --    911.9027               941.0406               945.7872
 Red. masses --      3.0451                 1.1679                 2.0400
 Frc consts  --      1.4919                 0.6094                 1.0751
 IR Inten    --     11.3651                 0.5349               116.4063

                     55                     56                     57
                      A                      A                      A
 Frequencies --    953.0968               953.9551               976.9215
 Red. masses --      1.2921                 1.8626                 1.1561
 Frc consts  --      0.6916                 0.9987                 0.6501
 IR Inten    --      0.3521                 6.1390                 0.3591

                     58                     59                     60
                      A                      A                      A
 Frequencies --    999.6993              1012.9626              1018.5330
 Red. masses --      2.1553                 1.2094                 1.7591
 Frc consts  --      1.2691                 0.7311                 1.0752
 IR Inten    --      4.1095                 7.1522                44.9018

                     61                     62                     63
                      A                      A                      A
 Frequencies --   1045.6832              1079.6408              1100.3975
 Red. masses --      1.6939                 1.3553                 2.8117
 Frc consts  --      1.0913                 0.9307                 2.0059
 IR Inten    --      3.8208                19.8629                22.4870

                     64                     65                     66
                      A                      A                      A
 Frequencies --   1103.5656              1139.2763              1150.1368
 Red. masses --      2.9255                 1.8906                 1.3032
 Frc consts  --      2.0991                 1.4458                 1.0157
 IR Inten    --      2.5001               144.0305                 0.7095

                     67                     68                     69
                      A                      A                      A
 Frequencies --   1150.8403              1172.8742              1175.4323
 Red. masses --      1.2448                 2.1305                 2.1981
 Frc consts  --      0.9714                 1.7268                 1.7893
 IR Inten    --      1.4238                 0.3654                 6.3281

                     70                     71                     72
                      A                      A                      A
 Frequencies --   1226.6740              1233.3499              1271.9251
 Red. masses --      1.8133                 1.4763                 1.5925
 Frc consts  --      1.6076                 1.3231                 1.5180
 IR Inten    --     57.1458                40.1338                60.9045

                     73                     74                     75
                      A                      A                      A
 Frequencies --   1289.8336              1293.0849              1336.4768
 Red. masses --      1.4974                 1.5417                 3.5810
 Frc consts  --      1.4678                 1.5188                 3.7686
 IR Inten    --     23.0874                17.2558                29.8533

                     76                     77                     78
                      A                      A                      A
 Frequencies --   1345.6591              1362.3286              1382.7132
 Red. masses --      1.2168                 1.6946                 1.1607
 Frc consts  --      1.2982                 1.8531                 1.3075
 IR Inten    --      9.4642                20.1328                 8.3384

                     79                     80                     81
                      A                      A                      A
 Frequencies --   1401.4388              1412.1110              1418.1006
 Red. masses --      1.3091                 1.1657                 1.5746
 Frc consts  --      1.5149                 1.3696                 1.8657
 IR Inten    --      8.2188                 1.9297                 1.7966

                     82                     83                     84
                      A                      A                      A
 Frequencies --   1422.0859              1432.3107              1440.0676
 Red. masses --      1.6038                 1.2542                 1.3809
 Frc consts  --      1.9110                 1.5160                 1.6872
 IR Inten    --     15.8073                11.6165                 5.3562

                     85                     86                     87
                      A                      A                      A
 Frequencies --   1446.3296              1488.0376              1498.3838
 Red. masses --      1.3851                 1.6315                 1.0526
 Frc consts  --      1.7071                 2.1284                 1.3924
 IR Inten    --    561.1109               212.1533                 2.4553

                     88                     89                     90
                      A                      A                      A
 Frequencies --   1500.8038              1509.5468              1514.4061
 Red. masses --      1.1634                 1.0543                 1.0919
 Frc consts  --      1.5439                 1.4154                 1.4755
 IR Inten    --     42.4392                19.3152                 7.4179

                     91                     92                     93
                      A                      A                      A
 Frequencies --   1516.2816              1519.2868              1521.2564
 Red. masses --      1.0557                 1.0480                 1.0560
 Frc consts  --      1.4300                 1.4253                 1.4399
 IR Inten    --     13.5609                 3.2667                10.7900

                     94                     95                     96
                      A                      A                      A
 Frequencies --   1528.1012              1539.4062              1646.6920
 Red. masses --      1.3314                 1.9821                 7.6962
 Frc consts  --      1.8317                 2.7674                12.2956
 IR Inten    --     35.2095               110.9993               307.1264

                     97                     98                     99
                      A                      A                      A
 Frequencies --   1706.0075              1720.7091              1822.2893
 Red. masses --      1.0872                 6.0410                 8.8096
 Frc consts  --      1.8643                10.5384                17.2363
 IR Inten    --     30.6685               507.0283               441.8171

                    100                    101                    102
                      A                      A                      A
 Frequencies --   1828.3061              1835.4402              2899.3517
 Red. masses --     10.2629                 8.2859                 1.0845
 Frc consts  --     20.2124                16.4464                 5.3712
 IR Inten    --    159.5988               270.7235               116.5489

                    103                    104                    105
                      A                      A                      A
 Frequencies --   2992.6586              3042.3497              3049.1852
 Red. masses --      1.0821                 1.0664                 1.0307
 Frc consts  --      5.7097                 5.8154                 5.6464
 IR Inten    --     24.8324                 8.9740                86.6514

                    106                    107                    108
                      A                      A                      A
 Frequencies --   3051.4548              3060.2480              3086.7361
 Red. masses --      1.0310                 1.0620                 1.0950
 Frc consts  --      5.6560                 5.8598                 6.1472
 IR Inten    --     16.0574                22.6523                 1.7605

                    109                    110                    111
                      A                      A                      A
 Frequencies --   3102.3380              3106.5930              3122.8248
 Red. masses --      1.0346                 1.1015                 1.1072
 Frc consts  --      5.8670                 6.2636                 6.3615
 IR Inten    --      4.0622                25.1305                36.5827

                    112                    113                    114
                      A                      A                      A
 Frequencies --   3128.8615              3135.8520              3147.4248
 Red. masses --      1.1077                 1.0761                 1.1032
 Frc consts  --      6.3890                 6.2347                 6.4388
 IR Inten    --      1.5536              2053.8442                23.1223

                    115                    116                    117
                      A                      A                      A
 Frequencies --   3162.3686              3171.0659              3227.5469
 Red. masses --      1.1043                 1.1059                 1.1029
 Frc consts  --      6.5065                 6.5519                 6.7689
 IR Inten    --     39.5273                 5.8926                 1.7201

                    118                    119                    120
                      A                      A                      A
 Frequencies --   3231.3753              3250.3374              3452.8420
 Red. masses --      1.0897                 1.0984                 1.0510
 Frc consts  --      6.7042                 6.8373                 7.3827
 IR Inten    --      2.3772                 1.3425                 0.1376

                    121                    122                    123
                      A                      A                      A
 Frequencies --   3502.1690              3529.2169              3640.5711
 Red. masses --      1.0749                 1.0898                 1.0787
 Frc consts  --      7.7678                 7.9978                 8.4232
 IR Inten    --      3.2421                 0.2162               113.9215

 - Thermochemistry -
 -------------------
 Temperature   298.150 Kelvin.  Pressure   1.00000 Atm.
 Atom     1 has atomic number  6 and mass  12.00000

 Molecular mass:   318.13618 amu.
 Principal axes and moments of inertia in atomic units:
                           1         2         3
     Eigenvalues --  8070.46180********************
           X           -0.01838   0.92366   0.38278
           Y            0.70931  -0.25777   0.65607
           Z            0.70465   0.28357  -0.65042
 This molecule is an asymmetric top.
 Rotational symmetry number  1.
 Warning -- assumption of classical behavior for rotation
           may cause significant error
 Rotational temperatures (Kelvin)      0.01073     0.00610     0.00402
 Rotational constants (GHZ):           0.22362     0.12708     0.08385
 Zero-point vibrational energy     925517.0 (Joules/Mol)
                                  221.20387 (Kcal/Mol)
 Warning -- explicit consideration of  38 degrees of freedom as
           vibrations may cause significant error
 Vibrational temperatures:      3.78    12.41    22.70    35.70    37.36
          (Kelvin)             38.38    50.22    56.32    77.36    83.91
                               92.16   107.70   121.04   138.16   169.49
                              175.81   182.73   229.40   255.47   267.09
                              274.00   309.64   330.60   331.20   370.57
                              395.85   412.01   478.97   537.65   599.04
                              606.61   643.34   738.64   745.79   797.25
                              800.97   805.52   843.71   946.51   987.76
                             1019.70  1024.10  1053.55  1062.08  1062.20
                             1090.41  1142.07  1171.17  1194.09  1248.04
                             1292.94  1312.02  1353.95  1360.78  1371.29
                             1372.53  1405.57  1438.34  1457.43  1465.44
                             1504.50  1553.36  1583.22  1587.78  1639.16
                             1654.79  1655.80  1687.50  1691.18  1764.91
                             1774.51  1830.01  1855.78  1860.46  1922.89
                             1936.10  1960.08  1989.41  2016.36  2031.71
                             2040.33  2046.06  2060.77  2071.93  2080.94
                             2140.95  2155.84  2159.32  2171.90  2178.89
                             2181.59  2185.91  2188.75  2198.59  2214.86
                             2369.22  2454.56  2475.71  2621.86  2630.52
                             2640.79  4171.52  4305.76  4377.26  4387.09
                             4390.36  4403.01  4441.12  4463.57  4469.69
                             4493.04  4501.73  4511.79  4528.44  4549.94
                             4562.45  4643.71  4649.22  4676.50  4967.86
                             5038.83  5077.75  5237.96

 Zero-point correction=                           0.352511 (Hartree/Particle)
 Thermal correction to Energy=                    0.379335
 Thermal correction to Enthalpy=                  0.380279
 Thermal correction to Gibbs Free Energy=         0.284320
 Sum of electronic and zero-point Energies=          -1388.283921
 Sum of electronic and thermal Energies=             -1388.257097
 Sum of electronic and thermal Enthalpies=           -1388.256153
 Sum of electronic and thermal Free Energies=        -1388.352112

                     E (Thermal)             CV                S
                      KCal/Mol        Cal/Mol-Kelvin    Cal/Mol-Kelvin
 Total                  238.036             90.043            201.962
 Electronic               0.000              0.000              0.000
 Translational            0.889              2.981             43.168
 Rotational               0.889              2.981             36.154
 Vibrational            236.259             84.081            122.640
 Vibration     1          0.592              1.987             10.668
 Vibration     2          0.593              1.987              8.305
 Vibration     3          0.593              1.986              7.105
 Vibration     4          0.593              1.985              6.206
 Vibration     5          0.593              1.985              6.116
 Vibration     6          0.593              1.984              6.063
 Vibration     7          0.594              1.983              5.529
 Vibration     8          0.594              1.981              5.302
 Vibration     9          0.596              1.976              4.674
 Vibration    10          0.596              1.974              4.513
 Vibration    11          0.597              1.971              4.328
 Vibration    12          0.599              1.966              4.021
 Vibration    13          0.601              1.960              3.792
 Vibration    14          0.603              1.952              3.533
 Vibration    15          0.608              1.935              3.136
 Vibration    16          0.610              1.931              3.065
 Vibration    17          0.611              1.926              2.991
 Vibration    18          0.621              1.892              2.556
 Vibration    19          0.628              1.870              2.354
 Vibration    20          0.632              1.859              2.271
 Vibration    21          0.634              1.853              2.224
 Vibration    22          0.645              1.818              1.999
 Vibration    23          0.652              1.796              1.881
 Vibration    24          0.652              1.795              1.877
 Vibration    25          0.667              1.750              1.678
 Vibration    26          0.677              1.719              1.564
 Vibration    27          0.684              1.699              1.495
 Vibration    28          0.715              1.610              1.246
 Vibration    29          0.745              1.526              1.065
 Vibration    30          0.780              1.435              0.904
 Vibration    31          0.784              1.423              0.887
 Vibration    32          0.806              1.367              0.804
 Vibration    33          0.868              1.220              0.626
 Vibration    34          0.873              1.209              0.614
 Vibration    35          0.910              1.131              0.536
 Vibration    36          0.912              1.125              0.530
 Vibration    37          0.915              1.118              0.524
 Vibration    38          0.943              1.061              0.474

 Normal termination of Gaussian 09 at Thu Mar 25 03:26:52 2021.
