 Gaussian 09, Revision E.01,
 Gaussian 09:  EM64L-G09RevE.01 30-Nov-2015

 ----------------------------------------------------
 # opt=(tight,modredundant) freq apfd/6-31g(d) nosymm
 ----------------------------------------------------

 -------------------
 Title Card Required
 -------------------
 Symbolic Z-matrix:
 Charge =  0 Multiplicity = 1

 SCF Done:  E(RAPFD) =  -1176.50896611     A.U. after   15 cycles
 SCF Done:  E(RAPFD) =  -1176.50039791     A.U. after   13 cycles
 SCF Done:  E(RAPFD) =  -1176.50897798     A.U. after    9 cycles
 SCF Done:  E(RAPFD) =  -1176.50613328     A.U. after   13 cycles
 SCF Done:  E(RAPFD) =  -1176.50905690     A.U. after    9 cycles
 SCF Done:  E(RAPFD) =  -1176.50757720     A.U. after   12 cycles
 SCF Done:  E(RAPFD) =  -1176.50911917     A.U. after    9 cycles
 SCF Done:  E(RAPFD) =  -1176.50929756     A.U. after   11 cycles
 SCF Done:  E(RAPFD) =  -1176.50909195     A.U. after   12 cycles
 SCF Done:  E(RAPFD) =  -1176.50934543     A.U. after    9 cycles
 SCF Done:  E(RAPFD) =  -1176.50969318     A.U. after    7 cycles
 SCF Done:  E(RAPFD) =  -1176.50969329     A.U. after    7 cycles
 SCF Done:  E(RAPFD) =  -1176.50969335     A.U. after    7 cycles
 SCF Done:  E(RAPFD) =  -1176.50969337     A.U. after    7 cycles
 SCF Done:  E(RAPFD) =  -1176.50969338     A.U. after    6 cycles
 SCF Done:  E(RAPFD) =  -1176.50969338     A.U. after    5 cycles
 SCF Done:  E(RAPFD) =  -1176.50969338     A.U. after    5 cycles
 SCF Done:  E(RAPFD) =  -1176.50969338     A.U. after    4 cycles
 SCF Done:  E(RAPFD) =  -1176.50969338     A.U. after    4 cycles
 Optimization completed.
    -- Stationary point found.
 Normal termination of Gaussian 09 at Wed Mar 24 03:46:47 2021.

 -------------------------------------------------------------------
 #N Geom=AllCheck Guess=TCheck SCRF=Check GenChk RAPFD/6-31G(d) Freq
 -------------------------------------------------------------------

 Structure from the checkpoint file:  "/localscratch/enas93.64551510.0/Gau-56780.chk"
 -------------------
 Title Card Required
 -------------------
 Charge =  0 Multiplicity = 1

                          Input orientation:
 ---------------------------------------------------------------------
 Center     Atomic      Atomic             Coordinates (Angstroms)
 Number     Number       Type             X           Y           Z
 ---------------------------------------------------------------------
      1          6           0       -2.017621   -1.810607   -0.102230
      2          8           0       -2.792851   -0.927797    0.357118
      3          8           0       -2.030405   -3.026649    0.553534
      4          8           0       -1.224695   -1.729884   -1.064697
      5          1           0       -2.689163   -2.918747    1.255279
      6          6           0        2.548426    0.963866    0.125409
      7          6           0        3.622919   -1.629038    0.119324
      8          6           0        4.420841   -0.569856    0.395906
      9          7           0        3.912604    0.687067    0.398537
     10          1           0        4.011574   -2.640869    0.109401
     11          1           0        5.478629   -0.666818    0.621989
     12          8           0        2.176717    2.135905    0.158083
     13          7           0        1.754840   -0.099231   -0.150635
     14          6           0        2.236916   -1.337683   -0.167266
     15          7           0        1.397009   -2.332756   -0.462347
     16          1           0        0.398496   -2.149739   -0.688577
     17          1           0        1.724428   -3.284904   -0.467003
     18          1           0        4.489625    1.491420    0.599773
     19         16           0       -2.567662    1.573126   -0.462506
     20          6           0       -2.337054    3.333746   -0.867632
     21          1           0       -3.317449    3.809288   -0.956764
     22          1           0       -1.733924    3.839817   -0.108826
     23          1           0       -1.826338    3.380670   -1.832469
     24          6           0       -3.213495    1.750027    1.214049
     25          1           0       -2.525413    2.344183    1.821179
     26          1           0       -4.191248    2.233805    1.153126
     27          1           0       -3.305814    0.728195    1.584524
     28          6           0       -0.839172    1.075600   -0.223722
     29          1           0       -0.737266    0.721250    0.800422
     30          1           0       -0.679489    0.221204   -0.883529
     31          1           0       -0.153515    1.905036   -0.408380
 ---------------------------------------------------------------------

 SCF Done:  E(RAPFD) =  -1176.50969338     A.U. after    1 cycles

 Alpha  occ. eigenvalues --  -89.06443 -19.16770 -19.12662 -19.10993 -19.10186
 Alpha  occ. eigenvalues --  -14.41288 -14.36107 -14.32568 -10.31054 -10.30305
 Alpha  occ. eigenvalues --  -10.28722 -10.27318 -10.26728 -10.26117 -10.22204
 Alpha  occ. eigenvalues --  -10.21218  -8.07506  -6.02110  -6.01992  -6.01435
 Alpha  occ. eigenvalues --   -1.06883  -1.04486  -0.97117  -0.96471  -0.94555
 Alpha  occ. eigenvalues --   -0.93490  -0.89718  -0.86690  -0.78506  -0.75980
 Alpha  occ. eigenvalues --   -0.73777  -0.66230  -0.64713  -0.63626  -0.56815
 Alpha  occ. eigenvalues --   -0.55708  -0.54978  -0.51958  -0.50045  -0.49601
 Alpha  occ. eigenvalues --   -0.49096  -0.48348  -0.46015  -0.44821  -0.44268
 Alpha  occ. eigenvalues --   -0.44146  -0.43790  -0.42939  -0.41943  -0.40760
 Alpha  occ. eigenvalues --   -0.40500  -0.40186  -0.39288  -0.38519  -0.36828
 Alpha  occ. eigenvalues --   -0.35235  -0.34279  -0.33231  -0.26953  -0.25868
 Alpha  occ. eigenvalues --   -0.24787  -0.24734  -0.23405  -0.23172  -0.22571
 Alpha  occ. eigenvalues --   -0.21304
 Alpha virt. eigenvalues --   -0.01175   0.01207   0.02821   0.04030   0.06545
 Alpha virt. eigenvalues --    0.08388   0.08999   0.11342   0.11755   0.12288
 Alpha virt. eigenvalues --    0.12697   0.13604   0.14017   0.14356   0.14545

 Mulliken charges:
               1
     1  C    0.742419
     2  O   -0.631363
     3  O   -0.620879
     4  O   -0.601586
     5  H    0.400247
     6  C    0.734766
     7  C   -0.280566
     8  C    0.104386
     9  N   -0.671140
    10  H    0.174540
    11  H    0.197274
    12  O   -0.571911
    13  N   -0.614343
    14  C    0.569591
    15  N   -0.848578
    16  H    0.453045
    17  H    0.349591
    18  H    0.362896
    19  S    0.625653
    20  C   -0.713409
    21  H    0.223819
    22  H    0.232893
    23  H    0.244188
    24  C   -0.693818
    25  H    0.220379
    26  H    0.219597
    27  H    0.298711
    28  C   -0.708371
    29  H    0.239491
    30  H    0.311306
    31  H    0.251174
 Sum of Mulliken charges =  -0.00000

 Dipole moment (field-independent basis, Debye):
    X=              1.1862    Y=              4.5130    Z=              2.4727  Tot=              5.2809
 Quadrupole moment (field-independent basis, Debye-Ang):
   XX=            -68.9740   YY=            -90.2738   ZZ=            -99.3635
   XY=            -26.1253   XZ=             -1.8512   YZ=             -4.6738

  Exact polarizability: 157.480  -8.158 172.135   0.677  -1.432  86.813
 Approx polarizability: 206.554   1.633 264.628   0.156   5.277 134.862

                      1                      2                      3
                      A                      A                      A
 Frequencies --     13.5635                26.5014                41.5630
 Red. masses --      5.1201                 4.5901                 5.9131
 Frc consts  --      0.0006                 0.0019                 0.0060
 IR Inten    --      2.7462                11.5240                 6.5321

                      4                      5                      6
                      A                      A                      A
 Frequencies --     48.5408                61.8332                76.6124
 Red. masses --      4.6421                 5.3609                 4.8884
 Frc consts  --      0.0064                 0.0121                 0.0169
 IR Inten    --      3.6389                 4.0222                 2.9037

                      7                      8                      9
                      A                      A                      A
 Frequencies --     84.0668               124.1098               150.9896
 Red. masses --      5.9808                 4.4280                 5.8923
 Frc consts  --      0.0249                 0.0402                 0.0791
 IR Inten    --      6.5071                 8.0509                 1.2123

                     10                     11                     12
                      A                      A                      A
 Frequencies --    154.6493               165.5040               188.6164
 Red. masses --      6.7615                 2.4355                 2.0506
 Frc consts  --      0.0953                 0.0393                 0.0430
 IR Inten    --      5.1107                 8.5607                 8.8136

                     13                     14                     15
                      A                      A                      A
 Frequencies --    195.6442               196.0375               220.7801
 Red. masses --      5.5416                 4.0234                 1.5959
 Frc consts  --      0.1250                 0.0911                 0.0458
 IR Inten    --      4.4567                25.4872                27.7437

                     16                     17                     18
                      A                      A                      A
 Frequencies --    222.1511               244.5378               307.2867
 Red. masses --      1.7803                 1.1603                 2.8521
 Frc consts  --      0.0518                 0.0409                 0.1587
 IR Inten    --     27.3879                 3.2116                 1.3875

                     19                     20                     21
                      A                      A                      A
 Frequencies --    321.5187               346.5117               388.3664
 Red. masses --      2.3751                 2.7754                 2.4845
 Frc consts  --      0.1447                 0.1963                 0.2208
 IR Inten    --      1.9630                 4.6744                 0.3214

                     22                     23                     24
                      A                      A                      A
 Frequencies --    416.6917               448.8829               540.4264
 Red. masses --      4.2305                 1.2250                 5.1625
 Frc consts  --      0.4328                 0.1454                 0.8883
 IR Inten    --     10.7005               136.0305                22.3804

                     25                     26                     27
                      A                      A                      A
 Frequencies --    554.1521               578.0681               586.8895
 Red. masses --      5.5315                 1.1096                 4.8782
 Frc consts  --      1.0008                 0.2185                 0.9900
 IR Inten    --      3.5847                89.0164                26.9763

                     28                     29                     30
                      A                      A                      A
 Frequencies --    590.7303               608.6178               653.1719
 Red. masses --      8.3374                 1.1874                 4.6892
 Frc consts  --      1.7142                 0.2591                 1.1787
 IR Inten    --      4.4822                48.4180                13.8481

                     31                     32                     33
                      A                      A                      A
 Frequencies --    677.8165               702.7852               728.2633
 Red. masses --     11.3132                 5.5533                 1.7439
 Frc consts  --      3.0624                 1.6160                 0.5449
 IR Inten    --     13.1914                13.2161                47.3445

                     34                     35                     36
                      A                      A                      A
 Frequencies --    732.4792               772.9840               778.9476
 Red. masses --      5.1239                 3.0109                 7.6111
 Frc consts  --      1.6197                 1.0599                 2.7209
 IR Inten    --      5.8717                60.2454                11.9955

                     37                     38                     39
                      A                      A                      A
 Frequencies --    784.3539               829.2446               912.0136
 Red. masses --      7.6931                 7.9179                 1.1902
 Frc consts  --      2.7885                 3.2079                 0.5833
 IR Inten    --      7.8301                38.9925                 2.4616

                     40                     41                     42
                      A                      A                      A
 Frequencies --    944.9308               947.2861               954.8444
 Red. masses --      1.2038                 1.1993                 2.8533
 Frc consts  --      0.6333                 0.6341                 1.5327
 IR Inten    --     55.1690                 2.6177                 6.8101

                     43                     44                     45
                      A                      A                      A
 Frequencies --    957.4859               983.0678              1001.4986
 Red. masses --      1.2808                 1.2499                 3.7393
 Frc consts  --      0.6918                 0.7117                 2.2098
 IR Inten    --      3.1627                18.9774                 0.3883

                     46                     47                     48
                      A                      A                      A
 Frequencies --   1019.7593              1033.1400              1064.2281
 Red. masses --      6.2451                 1.3684                 1.3208
 Frc consts  --      3.8263                 0.8605                 0.8814
 IR Inten    --    111.5681                 7.0043                29.7520

                     49                     50                     51
                      A                      A                      A
 Frequencies --   1091.0559              1132.6211              1140.7606
 Red. masses --      1.3213                 1.7680                 1.5238
 Frc consts  --      0.9267                 1.3363                 1.1683
 IR Inten    --     36.5289                76.3032                 5.0587

                     52                     53                     54
                      A                      A                      A
 Frequencies --   1240.2126              1247.0431              1334.1647
 Red. masses --      1.1753                 1.3251                 6.4051
 Frc consts  --      1.0651                 1.2142                 6.7173
 IR Inten    --     37.7170               168.3678                77.3465

                     55                     56                     57
                      A                      A                      A
 Frequencies --   1350.2345              1362.9208              1391.9484
 Red. masses --      1.1767                 1.1724                 1.5771
 Frc consts  --      1.2640                 1.2831                 1.8004
 IR Inten    --     18.9824                 7.4080                13.2190

                     58                     59                     60
                      A                      A                      A
 Frequencies --   1396.3712              1419.4036              1444.8834
 Red. masses --      1.2041                 5.6362                 1.0964
 Frc consts  --      1.3833                 6.6903                 1.3486
 IR Inten    --     34.1543               534.9173                19.2234

                     61                     62                     63
                      A                      A                      A
 Frequencies --   1457.5010              1469.9189              1487.8682
 Red. masses --      2.5369                 1.0536                 1.0529
 Frc consts  --      3.1753                 1.3413                 1.3733
 IR Inten    --     44.8493                22.8543                 4.8796

                     64                     65                     66
                      A                      A                      A
 Frequencies --   1490.1984              1491.7421              1512.4623
 Red. masses --      1.0720                 1.0531                 1.0532
 Frc consts  --      1.4026                 1.3807                 1.4195
 IR Inten    --      3.2928                 3.9759                27.2608

                     67                     68                     69
                      A                      A                      A
 Frequencies --   1568.8490              1582.3334              1696.4664
 Red. masses --      2.9662                 5.2291                 1.7397
 Frc consts  --      4.3014                 7.7139                 2.9499
 IR Inten    --    123.2932               111.8639                78.7208

                     70                     71                     72
                      A                      A                      A
 Frequencies --   1736.1053              1770.3747              1802.2025
 Red. masses --      3.2273                 6.9762                 8.2683
 Frc consts  --      5.7311                12.8824                15.8225
 IR Inten    --    584.1608               405.5522               870.4199

                     73                     74                     75
                      A                      A                      A
 Frequencies --   3080.8711              3081.7409              3100.5820
 Red. masses --      1.0309                 1.0305                 1.0324
 Frc consts  --      5.7651                 5.7661                 5.8475
 IR Inten    --     12.8379                15.2528               135.4486

                     76                     77                     78
                      A                      A                      A
 Frequencies --   3144.0138              3184.2008              3186.3304
 Red. masses --      1.0802                 1.1075                 1.1092
 Frc consts  --      6.2912                 6.6161                 6.6347
 IR Inten    --   1448.1854                 1.7176                 1.1450

                     79                     80                     81
                      A                      A                      A
 Frequencies --   3192.8043              3219.3726              3223.1178
 Red. masses --      1.1080                 1.1084                 1.1068
 Frc consts  --      6.6547                 6.7684                 6.7746
 IR Inten    --      0.3110                74.9878                46.0863

                     82                     83                     84
                      A                      A                      A
 Frequencies --   3231.4423              3236.5176              3255.0996
 Red. masses --      1.0898                 1.1084                 1.0983
 Frc consts  --      6.7050                 6.8410                 6.8562
 IR Inten    --      2.7376                11.4960                 5.5660

                     85                     86                     87
                      A                      A                      A
 Frequencies --   3652.6234              3708.1972              3789.9048
 Red. masses --      1.0788                 1.0822                 1.0644
 Frc consts  --      8.4801                 8.7681                 9.0076
 IR Inten    --     70.4037                60.8441                30.6540

 - Thermochemistry -
 -------------------
 Temperature   298.150 Kelvin.  Pressure   1.00000 Atm.
 Atom     1 has atomic number  6 and mass  12.00000

 Molecular mass:   249.07833 amu.
 Principal axes and moments of inertia in atomic units:
                           1         2         3
     Eigenvalues --  3116.279476471.972918999.13801
           X            0.98081   0.19349  -0.02413
           Y           -0.19317   0.98105   0.01481
           Z            0.02654  -0.00986   0.99960
 This molecule is an asymmetric top.
 Rotational symmetry number  1.
 Warning -- assumption of classical behavior for rotation
           may cause significant error
 Rotational temperatures (Kelvin)      0.02779     0.01338     0.00962
 Rotational constants (GHZ):           0.57913     0.27885     0.20055
 Zero-point vibrational energy     647697.7 (Joules/Mol)
                                  154.80347 (Kcal/Mol)
 Warning -- explicit consideration of  29 degrees of freedom as
           vibrations may cause significant error
 Vibrational temperatures:     19.51    38.13    59.80    69.84    88.96
          (Kelvin)            110.23   120.95   178.57   217.24   222.51
                              238.12   271.38   281.49   282.05   317.65
                              319.63   351.83   442.12   462.59   498.55
                              558.77   599.53   645.84   777.55   797.30
                              831.71   844.40   849.93   875.66   939.77
                              975.23  1011.15  1047.81  1053.87  1112.15
                             1120.73  1128.51  1193.10  1312.18  1359.54
                             1362.93  1373.81  1377.61  1414.41  1440.93
                             1467.20  1486.46  1531.18  1569.78  1629.59
                             1641.30  1784.39  1794.21  1919.56  1942.68
                             1960.94  2002.70  2009.06  2042.20  2078.86
                             2097.02  2114.88  2140.71  2144.06  2146.28
                             2176.09  2257.22  2276.62  2440.83  2497.87
                             2547.17  2592.96  4432.68  4433.93  4461.04
                             4523.53  4581.35  4584.41  4593.73  4631.95
                             4637.34  4649.32  4656.62  4683.36  5255.30
                             5335.26  5452.82

 Zero-point correction=                           0.246695 (Hartree/Particle)
 Thermal correction to Energy=                    0.265804
 Thermal correction to Enthalpy=                  0.266748
 Thermal correction to Gibbs Free Energy=         0.196334
 Sum of electronic and zero-point Energies=          -1176.262998
 Sum of electronic and thermal Energies=             -1176.243889
 Sum of electronic and thermal Enthalpies=           -1176.242945
 Sum of electronic and thermal Free Energies=        -1176.313359

                     E (Thermal)             CV                S
                      KCal/Mol        Cal/Mol-Kelvin    Cal/Mol-Kelvin
 Total                  166.795             67.466            148.199
 Electronic               0.000              0.000              0.000
 Translational            0.889              2.981             42.438
 Rotational               0.889              2.981             33.562
 Vibrational            165.017             61.504             72.199
 Vibration     1          0.593              1.986              7.406
 Vibration     2          0.593              1.985              6.075
 Vibration     3          0.594              1.981              5.183
 Vibration     4          0.595              1.978              4.876
 Vibration     5          0.597              1.973              4.398
 Vibration     6          0.599              1.965              3.976
 Vibration     7          0.601              1.960              3.794
 Vibration     8          0.610              1.929              3.035
 Vibration     9          0.618              1.902              2.660
 Vibration    10          0.620              1.897              2.614
 Vibration    11          0.624              1.885              2.486
 Vibration    12          0.633              1.856              2.241
 Vibration    13          0.636              1.846              2.174
 Vibration    14          0.636              1.845              2.170
 Vibration    15          0.647              1.809              1.953
 Vibration    16          0.648              1.807              1.941
 Vibration    17          0.660              1.772              1.770
 Vibration    18          0.697              1.660              1.377
 Vibration    19          0.707              1.632              1.302
 Vibration    20          0.725              1.582              1.182
 Vibration    21          0.757              1.495              1.006
 Vibration    22          0.780              1.434              0.903
 Vibration    23          0.808              1.363              0.799
 Vibration    24          0.895              1.161              0.564
 Vibration    25          0.910              1.131              0.536
 Vibration    26          0.935              1.079              0.489
 Vibration    27          0.944              1.060              0.473
 Vibration    28          0.948              1.052              0.466
 Vibration    29          0.967              1.014              0.435

 Optimization completed.
    -- Stationary point found.
 Normal termination of Gaussian 09 at Wed Mar 24 03:49:32 2021.
