 Gaussian 09, Revision E.01,
 Gaussian 09:  EM64L-G09RevE.01 30-Nov-2015

 --------------------------------
 # opt freq b3lyp/6-31g(d) nosymm
 --------------------------------

 -------------------
 Title Card Required
 -------------------
 Symbolic Z-matrix:
 Charge =  0 Multiplicity = 1

 SCF Done:  E(RB3LYP) =  -1350.88259181     A.U. after   19 cycles
 SCF Done:  E(RB3LYP) =  -1350.88365282     A.U. after   15 cycles
 SCF Done:  E(RB3LYP) =  -1350.88526428     A.U. after   14 cycles
 SCF Done:  E(RB3LYP) =  -1350.88611329     A.U. after   13 cycles
 SCF Done:  E(RB3LYP) =  -1350.88648267     A.U. after   14 cycles
 SCF Done:  E(RB3LYP) =  -1350.88737510     A.U. after   13 cycles
 SCF Done:  E(RB3LYP) =  -1350.88819607     A.U. after   13 cycles
 SCF Done:  E(RB3LYP) =  -1350.88884174     A.U. after   13 cycles
 SCF Done:  E(RB3LYP) =  -1350.88985848     A.U. after   13 cycles
 SCF Done:  E(RB3LYP) =  -1350.89136105     A.U. after   13 cycles
 SCF Done:  E(RB3LYP) =  -1350.91338739     A.U. after   10 cycles
 SCF Done:  E(RB3LYP) =  -1350.91338943     A.U. after    9 cycles
 SCF Done:  E(RB3LYP) =  -1350.91339005     A.U. after    9 cycles
 SCF Done:  E(RB3LYP) =  -1350.91339032     A.U. after    8 cycles
 SCF Done:  E(RB3LYP) =  -1350.91339046     A.U. after    7 cycles
 SCF Done:  E(RB3LYP) =  -1350.91339058     A.U. after    7 cycles
 SCF Done:  E(RB3LYP) =  -1350.91339066     A.U. after    7 cycles
 SCF Done:  E(RB3LYP) =  -1350.91339069     A.U. after    7 cycles
 SCF Done:  E(RB3LYP) =  -1350.91339071     A.U. after    6 cycles
 Optimization completed.
    -- Stationary point found.
 Normal termination of Gaussian 09 at Fri Feb 12 11:23:45 2021.

 --------------------------------------------------------------------
 #N Geom=AllCheck Guess=TCheck SCRF=Check GenChk RB3LYP/6-31G(d) Freq
 --------------------------------------------------------------------

 Structure from the checkpoint file:  "/localscratch/enas93.61778912.0/Gau-35024.chk"
 -------------------
 Title Card Required
 -------------------
 Charge =  0 Multiplicity = 1

                          Input orientation:
 ---------------------------------------------------------------------
 Center     Atomic      Atomic             Coordinates (Angstroms)
 Number     Number       Type             X           Y           Z
 ---------------------------------------------------------------------
      1          6           0       -0.351947    0.259645   -1.868430
      2          6           0       -2.902241    1.412689   -1.950210
      3          6           0       -2.325556    1.089275   -0.756506
      4          7           0       -1.097435    0.533708   -0.707879
      5          1           0       -3.892835    1.847124   -2.008649
      6          1           0       -2.802119    1.250857    0.205679
      7          8           0        0.772145   -0.255339   -1.764377
      8          7           0       -0.910857    0.586026   -3.072387
      9          6           0       -2.119753    1.126236   -3.113359
     10          7           0       -2.634847    1.381437   -4.355531
     11          1           0       -1.975333    1.329108   -5.120193
     12          1           0       -3.389064    2.045126   -4.450238
     13          1           0       -0.708718    0.308330    0.240595
     14         16           0        3.064015   -1.510427    0.849569
     15          6           0        2.732010    0.263495    0.578070
     16          1           0        3.687469    0.779535    0.699392
     17          1           0        2.343481    0.348345   -0.441601
     18          1           0        1.973235    0.599302    1.299631
     19          6           0        1.494089   -2.333733    0.414912
     20          1           0        0.719270   -2.028168    1.132766
     21          1           0        1.234999   -1.984732   -0.589485
     22          1           0        1.691105   -3.408177    0.439498
     23          6           0        3.057637   -1.622262    2.670514
     24          1           0        3.152356   -2.677923    2.935376
     25          1           0        3.925165   -1.068632    3.037207
     26          1           0        2.111162   -1.190694    3.029899
     27          6           0       -1.443381    0.487767    3.565166
     28          1           0       -1.624473    1.565870    3.485645
     29          1           0       -2.393763   -0.032652    3.399770
     30          1           0       -1.120721    0.277352    4.590590
     31         16           0       -0.165497   -0.062170    2.360132
 ---------------------------------------------------------------------

 SCF Done:  E(RB3LYP) =  -1350.91339071     A.U. after    1 cycles

 Alpha  occ. eigenvalues --  -88.98947 -88.75622 -19.08793 -14.35867 -14.35250
 Alpha  occ. eigenvalues --  -14.29870 -10.29007 -10.26895 -10.24453 -10.24005
 Alpha  occ. eigenvalues --  -10.22764 -10.22741 -10.18509 -10.15311  -8.04777
 Alpha  occ. eigenvalues --   -7.81706  -6.01056  -6.01020  -6.00451  -5.78287
 Alpha  occ. eigenvalues --   -5.77540  -5.77464  -1.02097  -0.95546  -0.92617
 Alpha  occ. eigenvalues --   -0.88916  -0.85657  -0.76467  -0.74402  -0.73674
 Alpha  occ. eigenvalues --   -0.68127  -0.64671  -0.63577  -0.63017  -0.55071
 Alpha  occ. eigenvalues --   -0.54432  -0.52790  -0.50935  -0.48832  -0.48673
 Alpha  occ. eigenvalues --   -0.48406  -0.48021  -0.44298  -0.44193  -0.43502
 Alpha  occ. eigenvalues --   -0.43384  -0.42126  -0.41203  -0.40878  -0.40595
 Alpha  occ. eigenvalues --   -0.38001  -0.36313  -0.36292  -0.36203  -0.33850
 Alpha  occ. eigenvalues --   -0.32678  -0.27272  -0.25523  -0.24307  -0.24015
 Alpha  occ. eigenvalues --   -0.21632  -0.15379  -0.14588
 Alpha virt. eigenvalues --   -0.01404  -0.00788   0.00140   0.02852   0.04338
 Alpha virt. eigenvalues --    0.07192   0.08158   0.10042   0.10427   0.10691
 Alpha virt. eigenvalues --    0.12458   0.13981   0.14358   0.15275   0.15839

 Mulliken charges:
               1
     1  C    0.698062
     2  C   -0.221587
     3  C    0.113859
     4  N   -0.611866
     5  H    0.132155
     6  H    0.181246
     7  O   -0.579145
     8  N   -0.558125
     9  C    0.515381
    10  N   -0.763765
    11  H    0.343256
    12  H    0.331305
    13  H    0.372946
    14  S    0.501478
    15  C   -0.643013
    16  H    0.190079
    17  H    0.270728
    18  H    0.273967
    19  C   -0.642901
    20  H    0.274076
    21  H    0.270513
    22  H    0.190576
    23  C   -0.615494
    24  H    0.202232
    25  H    0.202103
    26  H    0.282411
    27  C   -0.525347
    28  H    0.139879
    29  H    0.139917
    30  H    0.144152
    31  S   -0.609077
 Sum of Mulliken charges =  -0.00000

 Dipole moment (field-independent basis, Debye):
    X=              2.4638    Y=             -0.4125    Z=             -1.0475  Tot=              2.7088
 Quadrupole moment (field-independent basis, Debye-Ang):
   XX=            -70.7822   YY=            -88.3285   ZZ=           -101.2752
   XY=            -16.5872   XZ=             21.5633   YZ=            -13.8665

  Exact polarizability: 173.726 -36.430 115.117  19.969 -13.898 182.097
 Approx polarizability: 253.036 -48.657 170.319  15.879 -12.077 252.830

                      1                      2                      3
                      A                      A                      A
 Frequencies --     24.4524                27.1948                50.6252
 Red. masses --      4.2184                 3.6129                 3.8329
 Frc consts  --      0.0015                 0.0016                 0.0058
 IR Inten    --      4.7104                 6.2622                 0.9973

                      4                      5                      6
                      A                      A                      A
 Frequencies --     51.7546                70.7957                72.3881
 Red. masses --      4.3860                 1.1418                 5.1331
 Frc consts  --      0.0069                 0.0034                 0.0158
 IR Inten    --      6.3825                 0.2262                 5.1125

                      7                      8                      9
                      A                      A                      A
 Frequencies --     79.8199               105.8044               113.1782
 Red. masses --      5.0221                 3.9274                 3.7916
 Frc consts  --      0.0189                 0.0259                 0.0286
 IR Inten    --      8.0379                 0.2313                 2.8039

                     10                     11                     12
                      A                      A                      A
 Frequencies --    140.0098               145.5708               149.9496
 Red. masses --     10.9536                 7.2616                 2.9029
 Frc consts  --      0.1265                 0.0907                 0.0385
 IR Inten    --     38.1892                27.4010                 6.8092

                     13                     14                     15
                      A                      A                      A
 Frequencies --    180.9390               217.7014               234.7952
 Red. masses --      4.9511                 4.3467                 1.3333
 Frc consts  --      0.0955                 0.1214                 0.0433
 IR Inten    --      8.0263                 4.6833                 0.1675

                     16                     17                     18
                      A                      A                      A
 Frequencies --    240.6682               247.3753               288.5056
 Red. masses --      1.1853                 1.1038                 1.6954
 Frc consts  --      0.0404                 0.0398                 0.0831
 IR Inten    --      1.7468                19.8205                 0.2823

                     19                     20                     21
                      A                      A                      A
 Frequencies --    294.3980               322.1009               353.9744
 Red. masses --      2.3341                 2.8085                 1.6701
 Frc consts  --      0.1192                 0.1717                 0.1233
 IR Inten    --      3.1284                17.1304               194.9348

                     22                     23                     24
                      A                      A                      A
 Frequencies --    372.0850               426.9166               523.7504
 Red. masses --      1.9413                 2.6746                 1.4744
 Frc consts  --      0.1584                 0.2872                 0.2383
 IR Inten    --    117.2918                14.0186                86.0582

                     25                     26                     27
                      A                      A                      A
 Frequencies --    541.8916               554.3400               595.4196
 Red. masses --      4.5806                 3.3814                 9.5997
 Frc consts  --      0.7925                 0.6122                 2.0052
 IR Inten    --      2.4711                13.7331                13.3735

                     28                     29                     30
                      A                      A                      A
 Frequencies --    621.5960               694.5493               704.3689
 Red. masses --      5.1551                 6.6341                 6.3286
 Frc consts  --      1.1736                 1.8855                 1.8499
 IR Inten    --      2.1984                 0.7066                 0.3147

                     31                     32                     33
                      A                      A                      A
 Frequencies --    714.2025               728.7817               767.3508
 Red. masses --      6.7883                 2.4302                 1.9707
 Frc consts  --      2.0401                 0.7605                 0.6837
 IR Inten    --      8.6205                 0.9484                46.2694

                     34                     35                     36
                      A                      A                      A
 Frequencies --    785.5985               788.8423               907.6685
 Red. masses --      8.8497                 7.6394                 1.1450
 Frc consts  --      3.2180                 2.8009                 0.5558
 IR Inten    --     16.1721                 7.0475                34.5323

                     37                     38                     39
                      A                      A                      A
 Frequencies --    940.8726               957.7181               963.4439
 Red. masses --      3.5002                 1.1519                 1.1693
 Frc consts  --      1.8256                 0.6225                 0.6395
 IR Inten    --     22.2400                 2.6556                 8.6288

                     40                     41                     42
                      A                      A                      A
 Frequencies --    964.9364               991.4569              1000.5286
 Red. masses --      1.1845                 1.2305                 3.6233
 Frc consts  --      0.6498                 0.7126                 2.1371
 IR Inten    --     14.5857                 3.0381                 9.1971

                     43                     44                     45
                      A                      A                      A
 Frequencies --   1009.5842              1010.8443              1106.6146
 Red. masses --      1.1645                 1.1655                 1.2835
 Frc consts  --      0.6993                 0.7017                 0.9261
 IR Inten    --      2.4521                 1.7374                 7.3283

                     46                     47                     48
                      A                      A                      A
 Frequencies --   1109.5596              1120.8163              1126.2938
 Red. masses --      1.2874                 1.3122                 2.0076
 Frc consts  --      0.9338                 0.9712                 1.5004
 IR Inten    --     24.0147                42.3354                37.2769

                     49                     50                     51
                      A                      A                      A
 Frequencies --   1144.8689              1258.9840              1286.9780
 Red. masses --      1.3605                 2.9925                 2.0057
 Frc consts  --      1.0507                 2.7946                 1.9573
 IR Inten    --      4.6038                82.7059                66.4073

                     52                     53                     54
                      A                      A                      A
 Frequencies --   1373.2282              1376.3040              1387.1807
 Red. masses --      1.6993                 1.3725                 1.1420
 Frc consts  --      1.8880                 1.5318                 1.2947
 IR Inten    --    141.8889                66.8655                 1.0197

                     55                     56                     57
                      A                      A                      A
 Frequencies --   1398.5370              1436.4937              1464.4938
 Red. masses --      1.1322                 1.1409                 1.0370
 Frc consts  --      1.3048                 1.3871                 1.3104
 IR Inten    --      1.3657                56.9220                 4.2381

                     58                     59                     60
                      A                      A                      A
 Frequencies --   1469.0227              1491.5228              1494.7856
 Red. masses --      1.0580                 1.0730                 1.0552
 Frc consts  --      1.3453                 1.4063                 1.3891
 IR Inten    --     34.8758                58.1869                 1.4320

                     61                     62                     63
                      A                      A                      A
 Frequencies --   1503.8835              1511.3746              1513.3446
 Red. masses --      2.2195                 1.0764                 1.1744
 Frc consts  --      2.9575                 1.4487                 1.5847
 IR Inten    --     41.8466                47.9020               168.8935

                     64                     65                     66
                      A                      A                      A
 Frequencies --   1517.8855              1518.7154              1526.7049
 Red. masses --      1.0739                 1.0572                 1.9118
 Frc consts  --      1.4577                 1.4366                 2.6255
 IR Inten    --      6.7453                 3.9296                68.5784

                     67                     68                     69
                      A                      A                      A
 Frequencies --   1601.8712              1658.6309              1701.2464
 Red. masses --      3.3474                 1.3520                 4.3011
 Frc consts  --      5.0607                 2.1915                 7.3344
 IR Inten    --    125.7231                97.6898               576.2226

                     70                     71                     72
                      A                      A                      A
 Frequencies --   1731.7518              2956.9412              2986.4133
 Red. masses --      6.0453                 1.0894                 1.0500
 Frc consts  --     10.6817                 5.6123                 5.5173
 IR Inten    --    644.6687              2132.4082                17.2490

                     73                     74                     75
                      A                      A                      A
 Frequencies --   2991.2213              3008.9659              3031.4658
 Red. masses --      1.0445                 1.0432                 1.0310
 Frc consts  --      5.5063                 5.5647                 5.5822
 IR Inten    --     30.3818               475.2622                39.1292

                     76                     77                     78
                      A                      A                      A
 Frequencies --   3095.5862              3102.8884              3117.6556
 Red. masses --      1.1057                 1.1049                 1.0960
 Frc consts  --      6.2429                 6.2675                 6.2764
 IR Inten    --     36.9824                38.6047                 8.1863

                     79                     80                     81
                      A                      A                      A
 Frequencies --   3123.3622              3139.6622              3172.1810
 Red. masses --      1.0962                 1.0900                 1.1071
 Frc consts  --      6.3006                 6.3307                 6.5637
 IR Inten    --    218.9070                30.1679                 4.2779

                     82                     83                     84
                      A                      A                      A
 Frequencies --   3174.3281              3178.9694              3218.0582
 Red. masses --      1.1087                 1.1069                 1.0892
 Frc consts  --      6.5822                 6.5907                 6.6461
 IR Inten    --     74.9882                 0.8929                 1.7867

                     85                     86                     87
                      A                      A                      A
 Frequencies --   3236.1179              3585.0841              3705.1689
 Red. masses --      1.0978                 1.0461                 1.1025
 Frc consts  --      6.7734                 7.9218                 8.9174
 IR Inten    --      6.5016                55.7024                29.0253

 - Thermochemistry -
 -------------------
 Temperature   298.150 Kelvin.  Pressure   1.00000 Atm.
 Atom     1 has atomic number  6 and mass  12.00000

 Molecular mass:   235.08131 amu.
 Principal axes and moments of inertia in atomic units:
                           1         2         3
     Eigenvalues --  2443.133176946.812098877.67252
           X            0.63026  -0.65071   0.42350
           Y           -0.33108   0.26813   0.90471
           Z            0.70225   0.71042   0.04645
 This molecule is an asymmetric top.
 Rotational symmetry number  1.
 Warning -- assumption of classical behavior for rotation
           may cause significant error
 Rotational temperatures (Kelvin)      0.03545     0.01247     0.00976
 Rotational constants (GHZ):           0.73870     0.25979     0.20329
 Zero-point vibrational energy     667719.1 (Joules/Mol)
                                  159.58868 (Kcal/Mol)
 Warning -- explicit consideration of  27 degrees of freedom as
           vibrations may cause significant error
 Vibrational temperatures:     35.18    39.13    72.84    74.46   101.86
          (Kelvin)            104.15   114.84   152.23   162.84   201.44
                              209.44   215.74   260.33   313.22   337.82
                              346.27   355.92   415.09   423.57   463.43
                              509.29   535.35   614.24   753.56   779.66
                              797.57   856.67   894.34   999.30  1013.43
                             1027.58  1048.55  1104.05  1130.30  1134.97
                             1305.93  1353.70  1377.94  1386.18  1388.33
                             1426.48  1439.54  1452.56  1454.38  1592.17
                             1596.41  1612.60  1620.48  1647.21  1811.39
                             1851.67  1975.77  1980.19  1995.84  2012.18
                             2066.79  2107.08  2113.59  2145.97  2150.66
                             2163.75  2174.53  2177.36  2183.90  2185.09
                             2196.59  2304.73  2386.40  2447.71  2491.60
                             4254.37  4296.78  4303.69  4329.23  4361.60
                             4453.85  4464.36  4485.61  4493.82  4517.27
                             4564.06  4567.14  4573.82  4630.06  4656.05
                             5158.13  5330.90

 Zero-point correction=                           0.254321 (Hartree/Particle)
 Thermal correction to Energy=                    0.273387
 Thermal correction to Enthalpy=                  0.274331
 Thermal correction to Gibbs Free Energy=         0.204356
 Sum of electronic and zero-point Energies=          -1350.659070
 Sum of electronic and thermal Energies=             -1350.640003
 Sum of electronic and thermal Enthalpies=           -1350.639059
 Sum of electronic and thermal Free Energies=        -1350.709035

                     E (Thermal)             CV                S
                      KCal/Mol        Cal/Mol-Kelvin    Cal/Mol-Kelvin
 Total                  171.553             65.506            147.276
 Electronic               0.000              0.000              0.000
 Translational            0.889              2.981             42.266
 Rotational               0.889              2.981             33.377
 Vibrational            169.776             59.544             71.633
 Vibration     1          0.593              1.985              6.235
 Vibration     2          0.593              1.984              6.024
 Vibration     3          0.595              1.977              4.793
 Vibration     4          0.596              1.977              4.749
 Vibration     5          0.598              1.968              4.131
 Vibration     6          0.598              1.967              4.087
 Vibration     7          0.600              1.963              3.895
 Vibration     8          0.605              1.945              3.344
 Vibration     9          0.607              1.939              3.214
 Vibration    10          0.615              1.913              2.804
 Vibration    11          0.617              1.907              2.729
 Vibration    12          0.618              1.903              2.673
 Vibration    13          0.630              1.866              2.319
 Vibration    14          0.646              1.814              1.978
 Vibration    15          0.655              1.788              1.842
 Vibration    16          0.658              1.778              1.798
 Vibration    17          0.661              1.767              1.749
 Vibration    18          0.685              1.695              1.483
 Vibration    19          0.689              1.684              1.449
 Vibration    20          0.707              1.631              1.299
 Vibration    21          0.730              1.567              1.148
 Vibration    22          0.744              1.529              1.071
 Vibration    23          0.789              1.412              0.869
 Vibration    24          0.879              1.197              0.601
 Vibration    25          0.897              1.157              0.561
 Vibration    26          0.910              1.130              0.535
 Vibration    27          0.953              1.042              0.458

 Normal termination of Gaussian 09 at Fri Feb 12 11:25:38 2021.
