 Gaussian 09, Revision E.01,
 Gaussian 09:  EM64L-G09RevE.01 30-Nov-2015

 -----------------------------------------------------
 # opt=(tight,modredundant) freq b3lyp/6-31g(d) nosymm
 -----------------------------------------------------

 -------------------
 Title Card Required
 -------------------
 Symbolic Z-matrix:
 Charge =  0 Multiplicity = 1

 SCF Done:  E(RB3LYP) =  -1501.02249805     A.U. after   15 cycles
 SCF Done:  E(RB3LYP) =  -1501.02169557     A.U. after   14 cycles
 SCF Done:  E(RB3LYP) =  -1501.02396050     A.U. after   11 cycles
 SCF Done:  E(RB3LYP) =  -1501.02112844     A.U. after   15 cycles
 SCF Done:  E(RB3LYP) =  -1501.02456952     A.U. after   12 cycles
 SCF Done:  E(RB3LYP) =  -1501.02504866     A.U. after   12 cycles
 SCF Done:  E(RB3LYP) =  -1501.02534863     A.U. after   11 cycles
 SCF Done:  E(RB3LYP) =  -1501.02555381     A.U. after   12 cycles
 SCF Done:  E(RB3LYP) =  -1501.02565570     A.U. after   11 cycles
 SCF Done:  E(RB3LYP) =  -1501.02572036     A.U. after   11 cycles
 SCF Done:  E(RB3LYP) =  -1501.02583834     A.U. after    4 cycles
 SCF Done:  E(RB3LYP) =  -1501.02583834     A.U. after    4 cycles
 SCF Done:  E(RB3LYP) =  -1501.02583834     A.U. after    4 cycles
 SCF Done:  E(RB3LYP) =  -1501.02583834     A.U. after    4 cycles
 SCF Done:  E(RB3LYP) =  -1501.02583834     A.U. after    4 cycles
 SCF Done:  E(RB3LYP) =  -1501.02583834     A.U. after    4 cycles
 SCF Done:  E(RB3LYP) =  -1501.02583834     A.U. after    4 cycles
 SCF Done:  E(RB3LYP) =  -1501.02583834     A.U. after    4 cycles
 SCF Done:  E(RB3LYP) =  -1501.02583834     A.U. after    4 cycles
 Optimization completed.
    -- Stationary point found.
 Normal termination of Gaussian 09 at Fri Apr  9 03:27:50 2021.

 --------------------------------------------------------------------
 #N Geom=AllCheck Guess=TCheck SCRF=Check GenChk RB3LYP/6-31G(d) Freq
 --------------------------------------------------------------------

 Structure from the checkpoint file:  "/localscratch/enas93.66158420.0/Gau-6245.chk"
 -------------------
 Title Card Required
 -------------------
 Charge =  0 Multiplicity = 1

                          Input orientation:
 ---------------------------------------------------------------------
 Center     Atomic      Atomic             Coordinates (Angstroms)
 Number     Number       Type             X           Y           Z
 ---------------------------------------------------------------------
      1          6           0       -2.421427   -2.968327   -0.852189
      2          8           0       -2.547481   -2.291929    0.160140
      3          8           0       -3.444766   -3.364977   -1.622825
      4          8           0       -1.280529   -3.409621   -1.359988
      5          1           0       -4.254092   -2.937148   -1.263036
      6          6           0        2.094891    0.711770    0.171472
      7          6           0        3.361114   -1.815586    0.205378
      8          6           0        4.066743   -0.680359    0.386528
      9          7           0        3.455044    0.543702    0.370506
     10          1           0        3.844468   -2.784307    0.215360
     11          1           0        5.138536   -0.666443    0.551079
     12          8           0        1.584006    1.830135    0.160434
     13          7           0        1.369025   -0.458100   -0.010481
     14          6           0        1.928372   -1.747689   -0.018483
     15          7           0        1.142724   -2.756912   -0.220177
     16          1           0       -0.499806   -3.088938   -0.815315
     17          1           0        1.675031   -3.626201   -0.196301
     18          1           0        3.987561    1.407668    0.495939
     19         16           0       -5.842169   -1.313752   -0.517694
     20          6           0       -7.628109   -1.657380   -0.685501
     21          1           0       -7.868856   -2.674489   -0.361526
     22          1           0       -8.219162   -0.938619   -0.110071
     23          1           0       -7.880008   -1.553150   -1.744075
     24          6           0       -5.616209   -1.583659    1.274452
     25          1           0       -6.084535   -0.783586    1.854787
     26          1           0       -6.030345   -2.551374    1.573963
     27          1           0       -4.537103   -1.593090    1.439920
     28          6           0       -0.082327   -0.353107   -0.199384
     29          1           0       -0.604398   -0.983404    0.520392
     30          1           0       -0.347754   -0.692098   -1.204291
     31          1           0       -0.359342    0.690971   -0.074702
     32          7           0        2.114499    4.441401    1.883650
     33          1           0        2.881612    4.253289    2.529929
     34          6           0        2.683152    4.884069    0.621234
     35          1           0        1.859248    4.954888   -0.102255
     36          6           0        3.332787    6.270086    0.777426
     37          6           0        3.725998    3.906438    0.060486
     38          1           0        4.163317    6.220680    1.490688
     39          1           0        3.725138    6.647511   -0.173701
     40          1           0        2.588483    6.972288    1.161813
     41          8           0        4.443989    3.220858    0.763896
     42          8           0        3.867801    3.849751   -1.281135
     43          1           0        1.661100    3.541223    1.722311
     44          1           0        3.173883    4.379154   -1.709460
 ---------------------------------------------------------------------

 SCF Done:  E(RB3LYP) =  -1501.02583834     A.U. after    1 cycles

 Alpha  occ. eigenvalues --  -88.87420 -19.21285 -19.16197 -19.15290 -19.15229
 Alpha  occ. eigenvalues --  -19.13395 -19.10656 -14.39718 -14.39542 -14.32000
 Alpha  occ. eigenvalues --  -14.31441 -10.33974 -10.33519 -10.33175 -10.28646
 Alpha  occ. eigenvalues --  -10.26587 -10.24002 -10.21111 -10.21001 -10.20537
 Alpha  occ. eigenvalues --  -10.20086 -10.19511  -7.93517  -5.90030  -5.89658
 Alpha  occ. eigenvalues --   -5.88990  -1.11702  -1.10518  -1.07375  -1.03323
 Alpha  occ. eigenvalues --   -1.01233  -0.98891  -0.97992  -0.95761  -0.89450
 Alpha  occ. eigenvalues --   -0.88755  -0.79367  -0.79207  -0.75488  -0.72993
 Alpha  occ. eigenvalues --   -0.70241  -0.66544  -0.65976  -0.65035  -0.63076
 Alpha  occ. eigenvalues --   -0.62177  -0.59767  -0.57885  -0.55809  -0.53682
 Alpha  occ. eigenvalues --   -0.51217  -0.50334  -0.49377  -0.48725  -0.48339
 Alpha  occ. eigenvalues --   -0.47342  -0.46440  -0.46155  -0.45201  -0.44465
 Alpha  occ. eigenvalues --   -0.44412  -0.43871  -0.43773  -0.43266  -0.42856
 Alpha  occ. eigenvalues --   -0.42254  -0.42091  -0.41778  -0.40816  -0.40412
 Alpha  occ. eigenvalues --   -0.38925  -0.38857  -0.38373  -0.37670  -0.36521
 Alpha  occ. eigenvalues --   -0.36274  -0.35778  -0.34877  -0.33277  -0.31434
 Alpha  occ. eigenvalues --   -0.30635  -0.29584  -0.29321  -0.28652  -0.28067
 Alpha  occ. eigenvalues --   -0.26571  -0.25485  -0.24485  -0.23703  -0.22647
 Alpha virt. eigenvalues --   -0.03698  -0.00971   0.00817   0.04268   0.04372
 Alpha virt. eigenvalues --    0.07215   0.07689   0.08240   0.09516   0.09753
 Alpha virt. eigenvalues --    0.10388   0.11445   0.12893   0.13268   0.13573

 Mulliken charges:
               1
     1  C    0.696102
     2  O   -0.512682
     3  O   -0.581468
     4  O   -0.599070
     5  H    0.439030
     6  C    0.792405
     7  C   -0.237190
     8  C    0.108252
     9  N   -0.677433
    10  H    0.151746
    11  H    0.182151
    12  O   -0.549942
    13  N   -0.533235
    14  C    0.571006
    15  N   -0.722313
    16  H    0.473390
    17  H    0.303320
    18  H    0.409180
    19  S    0.074416
    20  C   -0.579863
    21  H    0.178404
    22  H    0.179237
    23  H    0.186413
    24  C   -0.593808
    25  H    0.173324
    26  H    0.171927
    27  H    0.230873
    28  C   -0.346456
    29  H    0.219503
    30  H    0.177379
    31  H    0.194904
    32  N   -0.704447
    33  H    0.301967
    34  C   -0.081274
    35  H    0.146341
    36  C   -0.442380
    37  C    0.624899
    38  H    0.163080
    39  H    0.142534
    40  H    0.179215
    41  O   -0.503349
    42  O   -0.558426
    43  H    0.331957
    44  H    0.420383
 Sum of Mulliken charges =  -0.00000

 Dipole moment (field-independent basis, Debye):
    X=              2.2830    Y=              2.0165    Z=              0.5625  Tot=              3.0975
 Quadrupole moment (field-independent basis, Debye-Ang):
   XX=           -104.2980   YY=           -130.8263   ZZ=           -140.4705
   XY=             -1.9851   XZ=             -4.5555   YZ=            -15.9817

  Exact polarizability: 212.948  12.932 208.650  12.838  11.528 135.846
 Approx polarizability: 280.857  11.722 301.219  22.271  16.352 211.469

 ******    1 imaginary frequencies (negative Signs) ******

                      1                      2                      3
                      A                      A                      A
 Frequencies --     -2.7783                11.9579                15.8240
 Red. masses --      4.6807                 5.0193                 6.0040
 Frc consts  --      0.0000                 0.0004                 0.0009
 IR Inten    --      0.5972                 0.7088                 0.4594

                      4                      5                      6
                      A                      A                      A
 Frequencies --     23.3848                27.8989                30.1058
 Red. masses --      5.1032                 5.2384                 3.6433
 Frc consts  --      0.0016                 0.0024                 0.0019
 IR Inten    --      0.1661                 6.3910                 0.1686

                      7                      8                      9
                      A                      A                      A
 Frequencies --     36.2449                40.7803                55.7084
 Red. masses --      4.9227                 3.7651                 5.3361
 Frc consts  --      0.0038                 0.0037                 0.0098
 IR Inten    --      2.3724                 0.9969                 1.0184

                     10                     11                     12
                      A                      A                      A
 Frequencies --     60.3762                64.3441                74.9494
 Red. masses --      4.9599                 6.7260                 4.7757
 Frc consts  --      0.0107                 0.0164                 0.0158
 IR Inten    --      0.4826                 0.5918                 3.1652

                     13                     14                     15
                      A                      A                      A
 Frequencies --     86.6031                98.6950               106.7174
 Red. masses --      4.9581                 4.9549                 5.4779
 Frc consts  --      0.0219                 0.0284                 0.0368
 IR Inten    --      1.4745                 1.6586                 3.9574

                     16                     17                     18
                      A                      A                      A
 Frequencies --    118.9117               126.2792               134.9384
 Red. masses --      6.8802                 6.5843                 6.2903
 Frc consts  --      0.0573                 0.0619                 0.0675
 IR Inten    --      3.4671                 4.5826                 6.7594

                     19                     20                     21
                      A                      A                      A
 Frequencies --    149.1446               170.3621               177.1002
 Red. masses --      6.7173                 4.6348                 1.2324
 Frc consts  --      0.0880                 0.0793                 0.0228
 IR Inten    --      9.6873                 5.8433                 1.0300

                     22                     23                     24
                      A                      A                      A
 Frequencies --    186.9009               203.7280               221.9932
 Red. masses --      5.1728                 1.0821                 1.1632
 Frc consts  --      0.1065                 0.0265                 0.0338
 IR Inten    --     18.1980                 3.5595                 1.8689

                     25                     26                     27
                      A                      A                      A
 Frequencies --    227.8452               238.0993               239.5571
 Red. masses --      1.1876                 3.2289                 3.1024
 Frc consts  --      0.0363                 0.1079                 0.1049
 IR Inten    --      4.5014                13.8218                14.1529

                     28                     29                     30
                      A                      A                      A
 Frequencies --    265.6122               292.0861               342.5809
 Red. masses --      2.5170                 2.6663                 1.3944
 Frc consts  --      0.1046                 0.1340                 0.0964
 IR Inten    --      1.6137                43.7172                11.5877

                     31                     32                     33
                      A                      A                      A
 Frequencies --    382.1419               386.1666               424.9609
 Red. masses --      2.3588                 2.8079                 6.0580
 Frc consts  --      0.2029                 0.2467                 0.6446
 IR Inten    --     29.9275                 3.8775                30.3723

                     34                     35                     36
                      A                      A                      A
 Frequencies --    434.0233               504.9477               519.8315
 Red. masses --      3.7139                 3.0881                 1.4863
 Frc consts  --      0.4122                 0.4639                 0.2366
 IR Inten    --      2.7356                 0.0227               131.2456

                     37                     38                     39
                      A                      A                      A
 Frequencies --    521.4180               559.2782               586.0024
 Red. masses --      3.3379                 7.1172                 4.1275
 Frc consts  --      0.5347                 1.3116                 0.8351
 IR Inten    --     12.3730                20.9337                23.5332

                     40                     41                     42
                      A                      A                      A
 Frequencies --    600.0021               633.7211               653.0387
 Red. masses --      5.5602                 5.8562                 4.4360
 Frc consts  --      1.1794                 1.3857                 1.1146
 IR Inten    --     26.3006                44.0883                10.5765

                     43                     44                     45
                      A                      A                      A
 Frequencies --    684.9825               687.9834               719.8874
 Red. masses --      5.0297                 2.0879                 4.7044
 Frc consts  --      1.3904                 0.5823                 1.4364
 IR Inten    --      6.5670                 5.5675                 4.9359

                     46                     47                     48
                      A                      A                      A
 Frequencies --    723.4362               740.7744               741.1681
 Red. masses --      1.1553                 6.6504                 4.6131
 Frc consts  --      0.3562                 2.1501                 1.4931
 IR Inten    --     42.4207                 0.2510                 3.9639

                     49                     50                     51
                      A                      A                      A
 Frequencies --    742.8277               759.9167               776.4055
 Red. masses --      2.8949                 1.8157                 1.5070
 Frc consts  --      0.9412                 0.6178                 0.5352
 IR Inten    --     17.4389                 2.3168                40.3612

                     52                     53                     54
                      A                      A                      A
 Frequencies --    800.4508               808.3854               816.9779
 Red. masses --      8.9640                 3.5055                 1.3274
 Frc consts  --      3.3839                 1.3497                 0.5220
 IR Inten    --     32.1411                 5.6624               112.1571

                     55                     56                     57
                      A                      A                      A
 Frequencies --    869.8128               924.9386               941.0793
 Red. masses --      5.9883                 2.1932                 1.1687
 Frc consts  --      2.6694                 1.1055                 0.6098
 IR Inten    --     14.1009                 6.9776                 1.0993

                     58                     59                     60
                      A                      A                      A
 Frequencies --    959.8985               962.8010               965.2069
 Red. masses --      1.2661                 1.2574                 1.4814
 Frc consts  --      0.6873                 0.6868                 0.8132
 IR Inten    --      4.6494                99.7210               159.7910

                     61                     62                     63
                      A                      A                      A
 Frequencies --    980.2746              1010.2122              1013.3613
 Red. masses --      1.1621                 2.4548                 1.2179
 Frc consts  --      0.6580                 1.4760                 0.7369
 IR Inten    --      0.3999                10.7725                 7.5779

                     64                     65                     66
                      A                      A                      A
 Frequencies --   1020.7062              1035.7146              1079.0263
 Red. masses --      3.5681                 1.5289                 1.3575
 Frc consts  --      2.1902                 0.9663                 0.9313
 IR Inten    --     25.7002                12.0610                36.5323

                     67                     68                     69
                      A                      A                      A
 Frequencies --   1099.6599              1109.7976              1149.4517
 Red. masses --      1.4933                 2.6481                 1.7562
 Frc consts  --      1.0640                 1.9216                 1.3671
 IR Inten    --    100.2484                73.2686                84.4146

                     70                     71                     72
                      A                      A                      A
 Frequencies --   1158.8244              1171.6202              1181.3762
 Red. masses --      1.4008                 2.2650                 2.0093
 Frc consts  --      1.1083                 1.8319                 1.6522
 IR Inten    --     68.7448                14.3104                 0.9833

                     73                     74                     75
                      A                      A                      A
 Frequencies --   1190.4476              1242.8704              1266.3972
 Red. masses --      1.7734                 1.7152                 1.8305
 Frc consts  --      1.4808                 1.5610                 1.7297
 IR Inten    --     23.4602               147.2849               529.5618

                     76                     77                     78
                      A                      A                      A
 Frequencies --   1295.1185              1296.8519              1311.0004
 Red. masses --      1.6284                 1.5673                 1.5149
 Frc consts  --      1.6092                 1.5531                 1.5340
 IR Inten    --    109.2539                52.6780               229.7870

                     79                     80                     81
                      A                      A                      A
 Frequencies --   1348.7051              1366.2667              1377.0902
 Red. masses --      3.5531                 2.1512                 1.1704
 Frc consts  --      3.8080                 2.3659                 1.3077
 IR Inten    --     19.1859               116.3841                68.9251

                     82                     83                     84
                      A                      A                      A
 Frequencies --   1390.5801              1401.6118              1426.8154
 Red. masses --      1.2856                 1.1567                 1.1997
 Frc consts  --      1.4647                 1.3388                 1.4391
 IR Inten    --     89.6076                 0.2076                 5.2553

                     85                     86                     87
                      A                      A                      A
 Frequencies --   1431.8277              1442.1404              1452.7953
 Red. masses --      1.6170                 1.3210                 1.4081
 Frc consts  --      1.9531                 1.6187                 1.7510
 IR Inten    --     16.3955                 5.0758                 7.3618

                     88                     89                     90
                      A                      A                      A
 Frequencies --   1497.3597              1503.2284              1506.3691
 Red. masses --      1.0538                 2.0050                 1.0564
 Frc consts  --      1.3921                 2.6694                 1.4124
 IR Inten    --      2.3027                54.5382                20.9030

                     91                     92                     93
                      A                      A                      A
 Frequencies --   1511.8107              1515.8311              1516.3330
 Red. masses --      1.0579                 1.0481                 1.0501
 Frc consts  --      1.4246                 1.4189                 1.4226
 IR Inten    --     24.0726                 6.6814                 3.4881

                     94                     95                     96
                      A                      A                      A
 Frequencies --   1520.3827              1528.1510              1528.6491
 Red. masses --      1.4740                 1.0481                 1.0531
 Frc consts  --      2.0075                 1.4421                 1.4498
 IR Inten    --    120.0124                14.7443                 8.4150

                     97                     98                     99
                      A                      A                      A
 Frequencies --   1547.2018              1558.2860              1650.2134
 Red. masses --      1.4866                 2.1408                 6.9301
 Frc consts  --      2.0968                 3.0628                11.1191
 IR Inten    --     26.4092                85.4322               287.8949

                    100                    101                    102
                      A                      A                      A
 Frequencies --   1715.8829              1718.8639              1781.6952
 Red. masses --      1.1330                 5.0548                 6.1414
 Frc consts  --      1.9655                 8.7991                11.4865
 IR Inten    --     27.1263               537.2111               516.2285

                    103                    104                    105
                      A                      A                      A
 Frequencies --   1801.8835              1827.7528              3040.0969
 Red. masses --      7.8346                 9.1514                 1.0848
 Frc consts  --     14.9872                18.0125                 5.9071
 IR Inten    --    407.9571               330.2862                20.2499

                    106                    107                    108
                      A                      A                      A
 Frequencies --   3056.3629              3058.5362              3061.3444
 Red. masses --      1.0357                 1.0306                 1.0311
 Frc consts  --      5.7002                 5.6801                 5.6935
 IR Inten    --     23.0063                55.4288                21.9796

                    109                    110                    111
                      A                      A                      A
 Frequencies --   3094.2289              3122.5693              3125.8962
 Red. masses --      1.0388                 1.1025                 1.0751
 Frc consts  --      5.8600                 6.3339                 6.1892
 IR Inten    --      6.0531                24.3927              2378.2711

                    112                    113                    114
                      A                      A                      A
 Frequencies --   3136.3585              3141.4814              3150.2293
 Red. masses --      1.1074                 1.1079                 1.1024
 Frc consts  --      6.4181                 6.4417                 6.4460
 IR Inten    --     32.4142                 4.5251                12.3369

                    115                    116                    117
                      A                      A                      A
 Frequencies --   3156.1962              3173.7134              3179.3078
 Red. masses --      1.1039                 1.0985                 1.1040
 Frc consts  --      6.4789                 6.5193                 6.5747
 IR Inten    --      7.7012                23.7203                 1.3042

                    118                    119                    120
                      A                      A                      A
 Frequencies --   3220.6110              3231.1197              3249.2566
 Red. masses --      1.1051                 1.0894                 1.0985
 Frc consts  --      6.7536                 6.7010                 6.8332
 IR Inten    --     11.3953                 2.1625                 2.1711

                    121                    122                    123
                      A                      A                      A
 Frequencies --   3433.9063              3456.4017              3502.3175
 Red. masses --      1.0831                 1.0502                 1.0749
 Frc consts  --      7.5245                 7.3918                 7.7681
 IR Inten    --    777.7092                45.3872                 1.5900

                    124                    125                    126
                      A                      A                      A
 Frequencies --   3514.5288              3537.5237              3725.6630
 Red. masses --      1.0668                 1.0915                 1.0657
 Frc consts  --      7.7633                 8.0475                 8.7151
 IR Inten    --    720.4504                25.1645                38.6538

 - Thermochemistry -
 -------------------
 Temperature   298.150 Kelvin.  Pressure   1.00000 Atm.
 Atom     1 has atomic number  6 and mass  12.00000

 Molecular mass:   338.12601 amu.
 Principal axes and moments of inertia in atomic units:
                           1         2         3
     Eigenvalues --  5606.38517********************
           X            0.82922  -0.55890  -0.00532
           Y            0.55182   0.82016  -0.15111
           Z            0.08882   0.12236   0.98850
 This molecule is an asymmetric top.
 Rotational symmetry number  1.
 Warning -- assumption of classical behavior for rotation
           may cause significant error
 Rotational temperatures (Kelvin)      0.01545     0.00382     0.00321
 Rotational constants (GHZ):           0.32191     0.07955     0.06690
    1 imaginary frequencies ignored.
 Zero-point vibrational energy     936133.4 (Joules/Mol)
                                  223.74125 (Kcal/Mol)
 Warning -- explicit consideration of  39 degrees of freedom as
           vibrations may cause significant error
 Vibrational temperatures:     17.20    22.77    33.65    40.14    43.32
          (Kelvin)             52.15    58.67    80.15    86.87    92.58
                              107.84   124.60   142.00   153.54   171.09
                              181.69   194.15   214.59   245.11   254.81
                              268.91   293.12   319.40   327.82   342.57
                              344.67   382.16   420.25   492.90   549.82
                              555.61   611.42   624.46   726.51   747.92
                              750.20   804.68   843.13   863.27   911.78
                              939.58   985.54   989.85  1035.76  1040.86
                             1065.81  1066.37  1068.76  1093.35  1117.07
                             1151.67  1163.08  1175.45  1251.47  1330.78
                             1354.00  1381.08  1385.25  1388.72  1410.39
                             1453.47  1458.00  1468.57  1490.16  1552.48
                             1582.16  1596.75  1653.80  1667.29  1685.70
                             1699.73  1712.79  1788.21  1822.06  1863.38
                             1865.88  1886.23  1940.48  1965.75  1981.32
                             2000.73  2016.60  2052.87  2060.08  2074.92
                             2090.25  2154.36  2162.81  2167.33  2175.16
                             2180.94  2181.66  2187.49  2198.67  2199.38
                             2226.08  2242.02  2374.29  2468.77  2473.06
                             2563.46  2592.51  2629.73  4374.02  4397.42
                             4400.55  4404.59  4451.90  4492.68  4497.46
                             4512.51  4519.89  4532.47  4541.06  4566.26
                             4574.31  4633.74  4648.85  4674.95  4940.62
                             4972.98  5039.05  5056.62  5089.70  5360.39

 Zero-point correction=                           0.356554 (Hartree/Particle)
 Thermal correction to Energy=                    0.383981
 Thermal correction to Enthalpy=                  0.384925
 Thermal correction to Gibbs Free Energy=         0.291401
 Sum of electronic and zero-point Energies=          -1500.669284
 Sum of electronic and thermal Energies=             -1500.641857
 Sum of electronic and thermal Enthalpies=           -1500.640913
 Sum of electronic and thermal Free Energies=        -1500.734437

                     E (Thermal)             CV                S
                      KCal/Mol        Cal/Mol-Kelvin    Cal/Mol-Kelvin
 Total                  240.952             93.525            196.838
 Electronic               0.000              0.000              0.000
 Translational            0.889              2.981             43.349
 Rotational               0.889              2.981             36.482
 Vibrational            239.174             87.563            117.007
 Vibration     1          0.593              1.987              7.656
 Vibration     2          0.593              1.986              7.099
 Vibration     3          0.593              1.985              6.324
 Vibration     4          0.593              1.984              5.973
 Vibration     5          0.594              1.984              5.822
 Vibration     6          0.594              1.982              5.454
 Vibration     7          0.594              1.981              5.221
 Vibration     8          0.596              1.975              4.604
 Vibration     9          0.597              1.973              4.445
 Vibration    10          0.597              1.971              4.319
 Vibration    11          0.599              1.966              4.019
 Vibration    12          0.601              1.959              3.735
 Vibration    13          0.604              1.950              3.480
 Vibration    14          0.606              1.944              3.328
 Vibration    15          0.609              1.934              3.118
 Vibration    16          0.611              1.927              3.002
 Vibration    17          0.613              1.918              2.874
 Vibration    18          0.618              1.904              2.683
 Vibration    19          0.625              1.879              2.431
 Vibration    20          0.628              1.871              2.359
 Vibration    21          0.632              1.858              2.258
 Vibration    22          0.639              1.835              2.099
 Vibration    23          0.648              1.808              1.943
 Vibration    24          0.651              1.799              1.896
 Vibration    25          0.656              1.782              1.817
 Vibration    26          0.657              1.780              1.806
 Vibration    27          0.671              1.736              1.625
 Vibration    28          0.687              1.688              1.462
 Vibration    29          0.722              1.590              1.200
 Vibration    30          0.752              1.508              1.031
 Vibration    31          0.755              1.500              1.015
 Vibration    32          0.787              1.416              0.875
 Vibration    33          0.795              1.396              0.846
 Vibration    34          0.860              1.239              0.646
 Vibration    35          0.875              1.206              0.610
 Vibration    36          0.876              1.203              0.607
 Vibration    37          0.915              1.119              0.525
 Vibration    38          0.943              1.062              0.474
 Vibration    39          0.958              1.032              0.450

 Normal termination of Gaussian 09 at Fri Apr  9 03:32:14 2021.
