 Gaussian 09, Revision E.01,
 Gaussian 09:  EM64L-G09RevE.01 30-Nov-2015

 ----------------------------------------------------------------------
 # opt=(calcall,tight,ts,modredundant,noeigentest,maxcycle=500) freq b3
 lyp/6-31g(d) nosymm
 ----------------------------------------------------------------------

 -------------------
 Title Card Required
 -------------------
 Symbolic Z-matrix:
 Charge =  1 Multiplicity = 1

 SCF Done:  E(RB3LYP) =  -1236.35603774     A.U. after   15 cycles
 SCF Done:  E(RB3LYP) =  -1236.35871423     A.U. after   15 cycles
 SCF Done:  E(RB3LYP) =  -1236.35600319     A.U. after   16 cycles
 SCF Done:  E(RB3LYP) =  -1236.35873495     A.U. after   16 cycles
 SCF Done:  E(RB3LYP) =  -1236.35557829     A.U. after   16 cycles
 SCF Done:  E(RB3LYP) =  -1236.31697746     A.U. after   15 cycles
 SCF Done:  E(RB3LYP) =  -1236.33476445     A.U. after   13 cycles
 SCF Done:  E(RB3LYP) =  -1236.35479445     A.U. after   13 cycles
 SCF Done:  E(RB3LYP) =  -1236.36273024     A.U. after   13 cycles
 SCF Done:  E(RB3LYP) =  -1236.37190429     A.U. after   12 cycles
 SCF Done:  E(RB3LYP) =  -1236.36016992     A.U. after    5 cycles
 SCF Done:  E(RB3LYP) =  -1236.36016992     A.U. after    4 cycles
 SCF Done:  E(RB3LYP) =  -1236.36016992     A.U. after    4 cycles
 SCF Done:  E(RB3LYP) =  -1236.36016992     A.U. after    5 cycles
 SCF Done:  E(RB3LYP) =  -1236.36016992     A.U. after    4 cycles
 SCF Done:  E(RB3LYP) =  -1236.36016992     A.U. after    5 cycles
 SCF Done:  E(RB3LYP) =  -1236.36016992     A.U. after    4 cycles
 SCF Done:  E(RB3LYP) =  -1236.36016992     A.U. after    5 cycles
 SCF Done:  E(RB3LYP) =  -1236.36016992     A.U. after    4 cycles
 Optimization completed on the basis of negligible forces.
    -- Stationary point found.
 ******    1 imaginary frequencies (negative Signs) ******
    1 imaginary frequencies ignored.
 Normal termination of Gaussian 09 at Tue Apr  6 02:29:25 2021.

 --------------------------------------------------------------------
 #N Geom=AllCheck Guess=TCheck SCRF=Check GenChk RB3LYP/6-31G(d) Freq
 --------------------------------------------------------------------

 Structure from the checkpoint file:  "/localscratch/enas93.65719470.0/Gau-254445.chk"
 -------------------
 Title Card Required
 -------------------
 Charge =  1 Multiplicity = 1

                          Input orientation:
 ---------------------------------------------------------------------
 Center     Atomic      Atomic             Coordinates (Angstroms)
 Number     Number       Type             X           Y           Z
 ---------------------------------------------------------------------
      1          6           0        0.452940   -0.599050   -0.179594
      2          6           0        2.482786   -2.522583   -0.410452
      3          6           0        2.784722   -1.198385   -0.294112
      4          7           0        1.806866   -0.272174   -0.174853
      5          1           0        3.254593   -3.275302   -0.506492
      6          1           0        3.800547   -0.818304   -0.291789
      7          8           0       -0.405129    0.278604   -0.085409
      8          7           0        0.140771   -1.941160   -0.291912
      9          6           0        1.097019   -2.871292   -0.403019
     10          7           0        0.730536   -4.165476   -0.506889
     11          1           0       -0.240150   -4.435762   -0.537167
     12          1           0        1.422188   -4.892199   -0.613554
     13          1           0        2.049960    0.727751   -0.097984
     14         16           0       -4.279756   -2.360488   -0.111978
     15          6           0       -4.744237   -1.033325   -1.277141
     16          1           0       -5.809609   -0.816300   -1.170522
     17          1           0       -4.153474   -0.131495   -1.095650
     18          1           0       -4.555667   -1.404195   -2.287238
     19          6           0       -4.597476   -1.542842    1.489387
     20          1           0       -4.008810   -0.626421    1.583825
     21          1           0       -5.663191   -1.317919    1.574043
     22          1           0       -4.319363   -2.246777    2.277181
     23          6           0       -1.948553   -2.192768   -0.213614
     24          1           0       -1.834866   -2.825572    0.654219
     25          1           0       -1.930757   -2.635643   -1.198389
     26          1           0       -1.954759   -1.116376   -0.105540
     27          7           0        0.408925    3.167057    1.006874
     28          1           0        0.896837    2.754326    1.800127
     29          6           0        1.276822    4.102443    0.322274
     30          1           0        0.711253    4.531163   -0.519232
     31          6           0        1.658692    5.248094    1.280952
     32          6           0        2.541676    3.470440   -0.295931
     33          1           0        2.262287    4.870009    2.114078
     34          1           0        2.227674    6.047999    0.794015
     35          1           0        0.743058    5.681581    1.689150
     36          8           0        2.844868    2.295137   -0.197185
     37          8           0        3.355187    4.280854   -0.994174
     38          1           0        0.117042    2.394685    0.409027
     39          1           0        3.019723    5.193647   -0.989148
 ---------------------------------------------------------------------

 SCF Done:  E(RB3LYP) =  -1236.36016992     A.U. after    1 cycles

 Alpha  occ. eigenvalues --  -89.04008 -19.29200 -19.24054 -19.23340 -14.49977
 Alpha  occ. eigenvalues --  -14.49883 -14.47231 -14.39592 -10.43654 -10.42115
 Alpha  occ. eigenvalues --  -10.41581 -10.38161 -10.37544 -10.34249 -10.34222
 Alpha  occ. eigenvalues --  -10.32342 -10.31858 -10.27378  -8.10090  -6.06488
 Alpha  occ. eigenvalues --   -6.06165  -6.05733  -1.20002  -1.17105  -1.11679
 Alpha  occ. eigenvalues --   -1.10388  -1.07054  -1.00837  -0.97543  -0.94861
 Alpha  occ. eigenvalues --   -0.90423  -0.84442  -0.84031  -0.83427  -0.79194
 Alpha  occ. eigenvalues --   -0.78059  -0.74420  -0.73848  -0.70604  -0.69772
 Alpha  occ. eigenvalues --   -0.67695  -0.66081  -0.62487  -0.61852  -0.59305
 Alpha  occ. eigenvalues --   -0.58920  -0.58712  -0.57783  -0.57388  -0.57222
 Alpha  occ. eigenvalues --   -0.56685  -0.55749  -0.55631  -0.54766  -0.54046
 Alpha  occ. eigenvalues --   -0.53435  -0.53252  -0.51604  -0.50924  -0.50465
 Alpha  occ. eigenvalues --   -0.49274  -0.48142  -0.47207  -0.46760  -0.46520
 Alpha  occ. eigenvalues --   -0.44587  -0.44444  -0.41525  -0.39413  -0.38830
 Alpha  occ. eigenvalues --   -0.37835  -0.36979  -0.35416  -0.32363
 Alpha virt. eigenvalues --   -0.15426  -0.14789  -0.10513  -0.09917  -0.09039
 Alpha virt. eigenvalues --   -0.07228  -0.05281  -0.03607  -0.03369  -0.01732
 Alpha virt. eigenvalues --    0.00025   0.00965   0.01425   0.01570   0.01834

 Mulliken charges:
               1
     1  C    0.777796
     2  C   -0.230437
     3  C    0.131220
     4  N   -0.647326
     5  H    0.179036
     6  H    0.221010
     7  O   -0.538768
     8  N   -0.622976
     9  C    0.617106
    10  N   -0.777454
    11  H    0.361219
    12  H    0.375148
    13  H    0.421726
    14  S    0.259651
    15  C   -0.599012
    16  H    0.225547
    17  H    0.216084
    18  H    0.218338
    19  C   -0.598918
    20  H    0.215068
    21  H    0.225985
    22  H    0.217446
    23  C   -0.423912
    24  H    0.224967
    25  H    0.226787
    26  H    0.271738
    27  N   -0.716807
    28  H    0.299810
    29  C   -0.103149
    30  H    0.172559
    31  C   -0.456176
    32  C    0.603178
    33  H    0.169210
    34  H    0.144444
    35  H    0.198139
    36  O   -0.487298
    37  O   -0.538596
    38  H    0.338226
    39  H    0.429392
 Sum of Mulliken charges =   1.00000

 Dipole moment (field-independent basis, Debye):
    X=             -4.0092    Y=             -6.3222    Z=             -0.8259  Tot=              7.5316
 Quadrupole moment (field-independent basis, Debye-Ang):
   XX=            -58.3503   YY=            -41.6210   ZZ=           -106.5464
   XY=             14.3344   XZ=              0.7364   YZ=              2.1059

  Exact polarizability: 230.349   6.014 197.786  -9.363   4.430 111.965
 Approx polarizability: 311.067  -3.037 289.908 -10.300   2.515 164.387

 ******    1 imaginary frequencies (negative Signs) ******

                      1                      2                      3
                      A                      A                      A
 Frequencies --   -447.5561                13.7067                21.8409
 Red. masses --     11.1842                 5.4121                 4.6815
 Frc consts  --      1.3199                 0.0006                 0.0013
 IR Inten    --   1210.7146                 0.1250                 4.9620

                      4                      5                      6
                      A                      A                      A
 Frequencies --     24.8006                32.4729                40.5030
 Red. masses --      5.1912                 3.5651                 4.0626
 Frc consts  --      0.0019                 0.0022                 0.0039
 IR Inten    --      0.7787                 0.6771                 2.1153

                      7                      8                      9
                      A                      A                      A
 Frequencies --     54.3134                67.6873                74.1457
 Red. masses --      3.4565                 5.1656                 5.5740
 Frc consts  --      0.0060                 0.0139                 0.0181
 IR Inten    --      4.4378                 2.4818                 0.6020

                     10                     11                     12
                      A                      A                      A
 Frequencies --     76.4301                84.4290               106.4363
 Red. masses --      3.9876                 3.0921                 4.7089
 Frc consts  --      0.0137                 0.0130                 0.0314
 IR Inten    --      9.6878                 0.5423                 4.2514

                     13                     14                     15
                      A                      A                      A
 Frequencies --    139.1323               147.2417               163.8755
 Red. masses --      5.6809                 1.2728                 1.2729
 Frc consts  --      0.0648                 0.0163                 0.0201
 IR Inten    --     16.7584                21.6342                 4.5680

                     16                     17                     18
                      A                      A                      A
 Frequencies --    171.0825               184.1363               198.4340
 Red. masses --      1.3431                 2.0999                 5.3919
 Frc consts  --      0.0232                 0.0419                 0.1251
 IR Inten    --      1.8636                 1.6771                 8.4426

                     19                     20                     21
                      A                      A                      A
 Frequencies --    210.5047               211.9923               236.0278
 Red. masses --      1.4370                 2.4224                 1.1719
 Frc consts  --      0.0375                 0.0641                 0.0385
 IR Inten    --      0.5534                 0.5364               194.3854

                     22                     23                     24
                      A                      A                      A
 Frequencies --    265.1797               266.9558               292.2160
 Red. masses --      2.9977                 2.6565                 1.9638
 Frc consts  --      0.1242                 0.1115                 0.0988
 IR Inten    --     19.5417                 1.2847                43.0005

                     25                     26                     27
                      A                      A                      A
 Frequencies --    307.8937               337.1486               354.3849
 Red. masses --      3.9760                 3.6135                 1.5155
 Frc consts  --      0.2221                 0.2420                 0.1121
 IR Inten    --     11.2988                11.2345                 6.2603

                     28                     29                     30
                      A                      A                      A
 Frequencies --    388.3033               417.5536               431.0298
 Red. masses --      3.6681                 2.6892                 2.4827
 Frc consts  --      0.3259                 0.2762                 0.2718
 IR Inten    --     14.7505                23.9332                 1.6584

                     31                     32                     33
                      A                      A                      A
 Frequencies --    494.2656               509.3798               539.6456
 Red. masses --      3.1349                 1.1941                 1.2254
 Frc consts  --      0.4512                 0.1826                 0.2102
 IR Inten    --      0.3082                 0.3690                92.0038

                     34                     35                     36
                      A                      A                      A
 Frequencies --    549.5939               566.7242               594.6321
 Red. masses --      6.0309                 5.3250                 8.9393
 Frc consts  --      1.0733                 1.0077                 1.8623
 IR Inten    --     15.6257                27.7853                 5.4154

                     37                     38                     39
                      A                      A                      A
 Frequencies --    625.6546               673.3413               716.7253
 Red. masses --      3.9766                 5.2793                 2.9681
 Frc consts  --      0.9171                 1.4103                 0.8983
 IR Inten    --     13.9493                 5.2134                 0.6185

                     40                     41                     42
                      A                      A                      A
 Frequencies --    727.8744               735.8330               770.2273
 Red. masses --      6.8022                 4.2389                10.4130
 Frc consts  --      2.1233                 1.3523                 3.6397
 IR Inten    --      0.5040                 2.5073                22.2510

                     43                     44                     45
                      A                      A                      A
 Frequencies --    783.2529               791.1916               809.3205
 Red. masses --      1.6193                 7.0331                 3.3097
 Frc consts  --      0.5853                 2.5939                 1.2773
 IR Inten    --     43.9304                17.1971                 7.5436

                     46                     47                     48
                      A                      A                      A
 Frequencies --    891.5957               905.4807               930.4179
 Red. masses --      1.3245                 1.2775                 2.0434
 Frc consts  --      0.6204                 0.6171                 1.0422
 IR Inten    --    164.4536                43.2549                 0.4399

                     49                     50                     51
                      A                      A                      A
 Frequencies --    940.8614               957.5332               978.6093
 Red. masses --      1.1664                 2.6329                 1.1574
 Frc consts  --      0.6084                 1.4223                 0.6530
 IR Inten    --      1.0616                57.4221                 0.0179

                     52                     53                     54
                      A                      A                      A
 Frequencies --    996.6518              1004.9869              1010.4407
 Red. masses --      1.2684                 2.9097                 1.2218
 Frc consts  --      0.7423                 1.7315                 0.7350
 IR Inten    --      1.4107                 9.1937                21.4218

                     55                     56                     57
                      A                      A                      A
 Frequencies --   1027.2707              1076.2247              1081.0381
 Red. masses --      1.4023                 1.3045                 1.0402
 Frc consts  --      0.8719                 0.8902                 0.7162
 IR Inten    --      0.6513                 7.4633                 0.7473

                     58                     59                     60
                      A                      A                      A
 Frequencies --   1083.5693              1092.7200              1118.5270
 Red. masses --      1.6362                 1.1095                 1.9356
 Frc consts  --      1.1319                 0.7806                 1.4268
 IR Inten    --     23.5110                54.5310                64.6319

                     61                     62                     63
                      A                      A                      A
 Frequencies --   1152.0314              1169.5683              1180.5937
 Red. masses --      1.4243                 1.2719                 2.3047
 Frc consts  --      1.1137                 1.0251                 1.8926
 IR Inten    --      4.9226                11.0108                14.8595

                     64                     65                     66
                      A                      A                      A
 Frequencies --   1203.8629              1271.8389              1278.5705
 Red. masses --      1.7171                 3.6711                 1.7374
 Frc consts  --      1.4662                 3.4988                 1.6734
 IR Inten    --      3.5938                31.6376                82.3348

                     67                     68                     69
                      A                      A                      A
 Frequencies --   1281.1247              1313.1453              1359.2008
 Red. masses --      1.6437                 1.5083                 2.1811
 Frc consts  --      1.5895                 1.5324                 2.3740
 IR Inten    --    135.2682               146.0790               194.3062

                     70                     71                     72
                      A                      A                      A
 Frequencies --   1384.5318              1393.4394              1410.0889
 Red. masses --      1.1484                 1.8763                 1.1517
 Frc consts  --      1.2970                 2.1464                 1.3493
 IR Inten    --      0.2124                32.7852                 1.8887

                     73                     74                     75
                      A                      A                      A
 Frequencies --   1415.2119              1420.1412              1426.9245
 Red. masses --      1.1122                 1.3046                 1.1024
 Frc consts  --      1.3124                 1.5503                 1.3225
 IR Inten    --      9.0571                 4.3745                 2.5416

                     76                     77                     78
                      A                      A                      A
 Frequencies --   1446.0650              1486.7209              1495.5734
 Red. masses --      1.2670                 1.0503                 1.0539
 Frc consts  --      1.5610                 1.3678                 1.3889
 IR Inten    --      3.0285                 0.0290                18.9504

                     79                     80                     81
                      A                      A                      A
 Frequencies --   1498.8105              1506.5711              1512.6149
 Red. masses --      1.0509                 1.0500                 2.6493
 Frc consts  --      1.3909                 1.4042                 3.5714
 IR Inten    --     32.9364                13.0201               182.9880

                     82                     83                     84
                      A                      A                      A
 Frequencies --   1513.3901              1532.4624              1542.1236
 Red. masses --      1.0513                 1.0493                 2.5943
 Frc consts  --      1.4187                 1.4519                 3.6351
 IR Inten    --      6.7410                19.0350               158.7041

                     85                     86                     87
                      A                      A                      A
 Frequencies --   1597.3785              1679.7646              1698.7910
 Red. masses --      3.2779                 1.6220                 2.9214
 Frc consts  --      4.9279                 2.6964                 4.9674
 IR Inten    --    143.8488                19.0859               788.9033

                     88                     89                     90
                      A                      A                      A
 Frequencies --   1714.0876              1765.3569              1822.1778
 Red. masses --      1.1682                 5.1983                 9.6202
 Frc consts  --      2.0223                 9.5451                18.8198
 IR Inten    --     23.4130               256.6221               535.3722

                     91                     92                     93
                      A                      A                      A
 Frequencies --   3023.5837              3059.0997              3075.7037
 Red. masses --      1.0834                 1.0378                 1.0298
 Frc consts  --      5.8356                 5.7222                 5.7399
 IR Inten    --     14.9731                17.9884                 4.3339

                     94                     95                     96
                      A                      A                      A
 Frequencies --   3078.0447              3121.1427              3145.1435
 Red. masses --      1.0298                 1.1023                 1.0094
 Frc consts  --      5.7483                 6.3270                 5.8831
 IR Inten    --      3.1588                27.9693                29.2716

                     97                     98                     99
                      A                      A                      A
 Frequencies --   3159.6465              3169.5326              3172.5439
 Red. masses --      1.1009                 1.1077                 1.1082
 Frc consts  --      6.4754                 6.5566                 6.5717
 IR Inten    --      6.6809                 0.9275                 0.0513

                    100                    101                    102
                      A                      A                      A
 Frequencies --   3176.8484              3177.8725              3241.0003
 Red. masses --      1.1066                 1.1059                 1.0906
 Frc consts  --      6.5804                 6.5801                 6.7494
 IR Inten    --      0.2802                 0.0336                 3.0977

                    103                    104                    105
                      A                      A                      A
 Frequencies --   3254.7724              3283.4257              3340.1731
 Red. masses --      1.0991                 1.0867                 1.1256
 Frc consts  --      6.8598                 6.9026                 7.3990
 IR Inten    --      0.5502              1761.6336                42.4891

                    106                    107                    108
                      A                      A                      A
 Frequencies --   3354.8895              3473.4728              3557.5095
 Red. masses --      1.1238                 1.0497                 1.0939
 Frc consts  --      7.4523                 7.4617                 8.1569
 IR Inten    --      1.4477                60.3854                60.5277

                    109                    110                    111
                      A                      A                      A
 Frequencies --   3619.1948              3727.5513              3732.8515
 Red. masses --      1.0464                 1.0658                 1.1052
 Frc consts  --      8.0759                 8.7251                 9.0733
 IR Inten    --    116.6570                51.6752                59.0534

 - Thermochemistry -
 -------------------
 Temperature   298.150 Kelvin.  Pressure   1.00000 Atm.
 Atom     1 has atomic number  6 and mass  12.00000

 Molecular mass:   277.13344 amu.
 Principal axes and moments of inertia in atomic units:
                           1         2         3
     Eigenvalues --  4466.64131********************
           X            0.67650   0.73040   0.09418
           Y            0.73606  -0.66645  -0.11858
           Z            0.02384  -0.14954   0.98847
 This molecule is an asymmetric top.
 Rotational symmetry number  1.
 Warning -- assumption of classical behavior for rotation
           may cause significant error
 Rotational temperatures (Kelvin)      0.01939     0.00745     0.00568
 Rotational constants (GHZ):           0.40405     0.15529     0.11840
    1 imaginary frequencies ignored.
 Zero-point vibrational energy     853652.9 (Joules/Mol)
                                  204.02793 (Kcal/Mol)
 Warning -- explicit consideration of  35 degrees of freedom as
           vibrations may cause significant error
 Vibrational temperatures:     19.72    31.42    35.68    46.72    58.27
          (Kelvin)             78.14    97.39   106.68   109.97   121.47
                              153.14   200.18   211.85   235.78   246.15
                              264.93   285.50   302.87   305.01   339.59
                              381.53   384.09   420.43   442.99   485.08
                              509.88   558.68   600.77   620.15   711.14
                              732.88   776.43   790.74   815.39   855.54
                              900.18   968.79  1031.21  1047.25  1058.70
                             1108.18  1126.92  1138.35  1164.43  1282.81
                             1302.78  1338.66  1353.69  1377.68  1408.00
                             1433.96  1445.95  1453.80  1478.01  1548.45
                             1555.37  1559.01  1572.18  1609.31  1657.51
                             1682.75  1698.61  1732.09  1829.89  1839.58
                             1843.25  1889.32  1955.58  1992.03  2004.85
                             2028.80  2036.17  2043.26  2053.02  2080.56
                             2139.06  2151.79  2156.45  2167.62  2176.31
                             2177.43  2204.87  2218.77  2298.27  2416.80
                             2444.18  2466.19  2539.95  2621.70  4350.26
                             4401.36  4425.25  4428.61  4490.62  4525.15
                             4546.02  4560.24  4564.58  4570.77  4572.24
                             4663.07  4682.89  4724.11  4805.76  4826.93
                             4997.55  5118.46  5207.21  5363.11  5370.73

 Zero-point correction=                           0.325139 (Hartree/Particle)
 Thermal correction to Energy=                    0.348615
 Thermal correction to Enthalpy=                  0.349560
 Thermal correction to Gibbs Free Energy=         0.267571
 Sum of electronic and zero-point Energies=          -1236.035031
 Sum of electronic and thermal Energies=             -1236.011554
 Sum of electronic and thermal Enthalpies=           -1236.010610
 Sum of electronic and thermal Free Energies=        -1236.092599

                     E (Thermal)             CV                S
                      KCal/Mol        Cal/Mol-Kelvin    Cal/Mol-Kelvin
 Total                  218.759             81.294            172.559
 Electronic               0.000              0.000              0.000
 Translational            0.889              2.981             42.756
 Rotational               0.889              2.981             35.024
 Vibrational            216.982             75.333             94.778
 Vibration     1          0.593              1.986              7.385
 Vibration     2          0.593              1.985              6.459
 Vibration     3          0.593              1.985              6.207
 Vibration     4          0.594              1.983              5.672
 Vibration     5          0.594              1.981              5.234
 Vibration     6          0.596              1.976              4.654
 Vibration     7          0.598              1.970              4.220
 Vibration     8          0.599              1.966              4.040
 Vibration     9          0.599              1.965              3.981
 Vibration    10          0.601              1.960              3.785
 Vibration    11          0.605              1.944              3.333
 Vibration    12          0.615              1.914              2.816
 Vibration    13          0.617              1.906              2.708
 Vibration    14          0.623              1.887              2.505
 Vibration    15          0.626              1.878              2.424
 Vibration    16          0.631              1.861              2.286
 Vibration    17          0.637              1.842              2.148
 Vibration    18          0.643              1.825              2.039
 Vibration    19          0.643              1.823              2.026
 Vibration    20          0.655              1.786              1.833
 Vibration    21          0.671              1.737              1.627
 Vibration    22          0.672              1.734              1.616
 Vibration    23          0.688              1.688              1.461
 Vibration    24          0.698              1.659              1.374
 Vibration    25          0.718              1.601              1.226
 Vibration    26          0.730              1.566              1.147
 Vibration    27          0.756              1.495              1.007
 Vibration    28          0.781              1.432              0.900
 Vibration    29          0.792              1.403              0.855
 Vibration    30          0.850              1.263              0.673
 Vibration    31          0.865              1.229              0.635
 Vibration    32          0.895              1.162              0.566
 Vibration    33          0.905              1.141              0.545
 Vibration    34          0.923              1.103              0.511
 Vibration    35          0.952              1.043              0.459

 Normal termination of Gaussian 09 at Tue Apr  6 02:31:41 2021.
