 Gaussian 09, Revision E.01,
 Gaussian 09:  EM64L-G09RevE.01 30-Nov-2015

 -----------------------------------------------------
 # opt=(tight,modredundant) freq b3lyp/6-31g(d) nosymm
 -----------------------------------------------------

 -------------------
 Title Card Required
 -------------------
 Symbolic Z-matrix:
 Charge =  0 Multiplicity = 1

 SCF Done:  E(RB3LYP) =  -1500.97137385     A.U. after   14 cycles
 SCF Done:  E(RB3LYP) =  -1500.96192912     A.U. after   13 cycles
 SCF Done:  E(RB3LYP) =  -1500.97198774     A.U. after   11 cycles
 SCF Done:  E(RB3LYP) =  -1500.97179507     A.U. after   13 cycles
 SCF Done:  E(RB3LYP) =  -1500.97307562     A.U. after   10 cycles
 SCF Done:  E(RB3LYP) =  -1500.97314800     A.U. after   12 cycles
 SCF Done:  E(RB3LYP) =  -1500.97396810     A.U. after   12 cycles
 SCF Done:  E(RB3LYP) =  -1500.97168010     A.U. after   13 cycles
 SCF Done:  E(RB3LYP) =  -1500.97412481     A.U. after   10 cycles
 SCF Done:  E(RB3LYP) =  -1500.97461094     A.U. after   12 cycles
 SCF Done:  E(RB3LYP) =  -1500.97674847     A.U. after    5 cycles
 SCF Done:  E(RB3LYP) =  -1500.97674847     A.U. after    5 cycles
 SCF Done:  E(RB3LYP) =  -1500.97674847     A.U. after    5 cycles
 SCF Done:  E(RB3LYP) =  -1500.97674847     A.U. after    4 cycles
 SCF Done:  E(RB3LYP) =  -1500.97674847     A.U. after    4 cycles
 SCF Done:  E(RB3LYP) =  -1500.97674847     A.U. after    4 cycles
 SCF Done:  E(RB3LYP) =  -1500.97674847     A.U. after    4 cycles
 SCF Done:  E(RB3LYP) =  -1500.97674847     A.U. after    3 cycles
 SCF Done:  E(RB3LYP) =  -1500.97674847     A.U. after    4 cycles
 Optimization completed.
    -- Stationary point found.
 Normal termination of Gaussian 09 at Fri Apr  9 03:50:32 2021.

 --------------------------------------------------------------------
 #N Geom=AllCheck Guess=TCheck SCRF=Check GenChk RB3LYP/6-31G(d) Freq
 --------------------------------------------------------------------

 Structure from the checkpoint file:  "/localscratch/enas93.66158496.0/Gau-112014.chk"
 -------------------
 Title Card Required
 -------------------
 Charge =  0 Multiplicity = 1

                          Input orientation:
 ---------------------------------------------------------------------
 Center     Atomic      Atomic             Coordinates (Angstroms)
 Number     Number       Type             X           Y           Z
 ---------------------------------------------------------------------
      1          6           0       -2.392122   -3.808558   -0.928200
      2          8           0       -3.452481   -3.204314   -0.601949
      3          8           0       -2.415762   -5.188552   -0.813113
      4          8           0       -1.318062   -3.320514   -1.344499
      5          1           0       -3.315944   -5.391382   -0.509514
      6          6           0        1.638274    0.240291   -0.026025
      7          6           0        3.339449   -1.977407   -0.022585
      8          6           0        3.829199   -0.745170    0.270800
      9          7           0        3.011892    0.339746    0.276144
     10          1           0        3.979147   -2.851787   -0.033015
     11          1           0        4.871939   -0.561759    0.509554
     12          8           0        0.952442    1.280242   -0.025919
     13          7           0        1.135623   -0.986244   -0.300490
     14          6           0        1.927664   -2.062692   -0.312392
     15          7           0        1.370723   -3.250033   -0.595225
     16          1           0        0.373161   -3.328660   -0.858039
     17          1           0        1.949170   -4.073947   -0.652611
     18          1           0        3.369414    1.267867    0.502832
     19         16           0       -3.636331   -0.441396   -0.454484
     20          6           0       -3.890085    1.348360   -0.149939
     21          1           0       -4.964116    1.540726   -0.089118
     22          1           0       -3.391307    1.664751    0.769561
     23          1           0       -3.473299    1.889634   -1.002269
     24          6           0       -4.303288   -1.100131    1.105724
     25          1           0       -3.815795   -0.610844    1.952681
     26          1           0       -5.379335   -0.910231    1.113294
     27          1           0       -4.097046   -2.170813    1.055869
     28          6           0       -1.824962   -0.546212   -0.244123
     29          1           0       -1.583339   -0.467359    0.817162
     30          1           0       -1.510775   -1.507165   -0.671494
     31          1           0       -1.370140    0.288827   -0.778862
     32          7           0        0.643671    3.645205    1.804356
     33          1           0        1.341056    3.644164    2.550410
     34          6           0        1.241461    4.288400    0.642406
     35          1           0        0.524680    4.197156   -0.184994
     36          6           0        1.502686    5.777681    0.918911
     37          6           0        2.558405    3.625652    0.212598
     38          1           0        2.231862    5.889309    1.729429
     39          1           0        1.897395    6.291947    0.035351
     40          1           0        0.568937    6.257344    1.225356
     41          8           0        3.369875    3.183467    1.002571
     42          8           0        2.840991    3.600522   -1.109462
     43          1           0        0.512332    2.662849    1.552073
     44          1           0        2.045220    3.832871   -1.616304
 ---------------------------------------------------------------------

 SCF Done:  E(RB3LYP) =  -1500.97674847     A.U. after    1 cycles

 Alpha  occ. eigenvalues --  -88.98752 -19.19754 -19.13725 -19.12369 -19.09391
 Alpha  occ. eigenvalues --  -19.06437 -19.06038 -14.37180 -14.33168 -14.30389
 Alpha  occ. eigenvalues --  -14.29550 -10.31759 -10.29411 -10.28157 -10.26683
 Alpha  occ. eigenvalues --  -10.25378 -10.24722 -10.24278 -10.22917 -10.21091
 Alpha  occ. eigenvalues --  -10.18860 -10.18707  -8.04379  -6.00705  -6.00592
 Alpha  occ. eigenvalues --   -6.00053  -1.10192  -1.04478  -1.02616  -1.01809
 Alpha  occ. eigenvalues --   -0.95251  -0.94405  -0.92606  -0.91352  -0.88655
 Alpha  occ. eigenvalues --   -0.88401  -0.85230  -0.76855  -0.75135  -0.74516
 Alpha  occ. eigenvalues --   -0.73171  -0.64941  -0.64790  -0.63487  -0.63365
 Alpha  occ. eigenvalues --   -0.60776  -0.55399  -0.54677  -0.53566  -0.52480
 Alpha  occ. eigenvalues --   -0.51172  -0.49636  -0.49126  -0.48998  -0.48750
 Alpha  occ. eigenvalues --   -0.47557  -0.45841  -0.45789  -0.44622  -0.44059
 Alpha  occ. eigenvalues --   -0.43688  -0.43420  -0.43137  -0.42512  -0.42312
 Alpha  occ. eigenvalues --   -0.41130  -0.40628  -0.40085  -0.39940  -0.39530
 Alpha  occ. eigenvalues --   -0.39180  -0.38113  -0.37915  -0.37147  -0.36006
 Alpha  occ. eigenvalues --   -0.35527  -0.34373  -0.33439  -0.33238  -0.31743
 Alpha  occ. eigenvalues --   -0.28036  -0.25853  -0.25404  -0.24680  -0.23813
 Alpha  occ. eigenvalues --   -0.23735  -0.22866  -0.22224  -0.22123  -0.20354
 Alpha virt. eigenvalues --   -0.01507  -0.00127   0.00571   0.01068   0.02912
 Alpha virt. eigenvalues --    0.04484   0.05644   0.06840   0.09199   0.09686
 Alpha virt. eigenvalues --    0.09932   0.10716   0.11206   0.12043   0.12475

 Mulliken charges:
               1
     1  C    0.700446
     2  O   -0.613706
     3  O   -0.599322
     4  O   -0.576500
     5  H    0.383287
     6  C    0.711326
     7  C   -0.224752
     8  C    0.112591
     9  N   -0.644357
    10  H    0.135983
    11  H    0.170160
    12  O   -0.605744
    13  N   -0.579773
    14  C    0.549391
    15  N   -0.803907
    16  H    0.426263
    17  H    0.328897
    18  H    0.390509
    19  S    0.578142
    20  C   -0.619867
    21  H    0.201280
    22  H    0.212773
    23  H    0.214740
    24  C   -0.609888
    25  H    0.190548
    26  H    0.196636
    27  H    0.283309
    28  C   -0.621755
    29  H    0.190392
    30  H    0.319735
    31  H    0.217804
    32  N   -0.719142
    33  H    0.298192
    34  C   -0.064403
    35  H    0.131554
    36  C   -0.443980
    37  C    0.628216
    38  H    0.162108
    39  H    0.143653
    40  H    0.168897
    41  O   -0.503675
    42  O   -0.564766
    43  H    0.332263
    44  H    0.416443
 Sum of Mulliken charges =  -0.00000

 Dipole moment (field-independent basis, Debye):
    X=             -2.5665    Y=              4.7882    Z=              2.1063  Tot=              5.8266
 Quadrupole moment (field-independent basis, Debye-Ang):
   XX=           -106.9723   YY=           -143.8946   ZZ=           -138.8393
   XY=            -23.8944   XZ=             -8.7109   YZ=            -18.6631

  Exact polarizability: 201.427  -4.303 241.113  -0.210  12.535 124.482
 Approx polarizability: 283.827  -9.244 337.252   5.682  12.789 197.753

 ******    1 imaginary frequencies (negative Signs) ******

                      1                      2                      3
                      A                      A                      A
 Frequencies --    -13.4226                16.8847                22.6639
 Red. masses --      2.8388                 5.1425                 5.5945
 Frc consts  --      0.0003                 0.0009                 0.0017
 IR Inten    --      0.8594                 0.6618                 3.0438

                      4                      5                      6
                      A                      A                      A
 Frequencies --     23.8657                28.4485                37.6036
 Red. masses --      5.4465                 5.0557                 6.3414
 Frc consts  --      0.0018                 0.0024                 0.0053
 IR Inten    --      1.4478                 2.5208                 8.4937

                      7                      8                      9
                      A                      A                      A
 Frequencies --     46.2650                49.3396                51.3254
 Red. masses --      4.1842                 4.7863                 5.8171
 Frc consts  --      0.0053                 0.0069                 0.0090
 IR Inten    --      0.7586                11.6309                 3.1704

                     10                     11                     12
                      A                      A                      A
 Frequencies --     61.6577                62.8735                86.2000
 Red. masses --      5.8192                 6.2024                 7.4866
 Frc consts  --      0.0130                 0.0144                 0.0328
 IR Inten    --     10.1311                 2.2798                 7.3776

                     13                     14                     15
                      A                      A                      A
 Frequencies --    102.4399               109.2008               120.1679
 Red. masses --      7.4493                 5.4836                 6.3707
 Frc consts  --      0.0461                 0.0385                 0.0542
 IR Inten    --      2.8933                 2.9859                12.5270

                     16                     17                     18
                      A                      A                      A
 Frequencies --    123.3307               161.9069               170.4313
 Red. masses --      8.1557                 3.8766                 5.8003
 Frc consts  --      0.0731                 0.0599                 0.0993
 IR Inten    --      8.8158                 5.2907                 1.9928

                     19                     20                     21
                      A                      A                      A
 Frequencies --    183.5492               191.1869               191.8204
 Red. masses --      4.6985                 1.0470                 5.0865
 Frc consts  --      0.0933                 0.0225                 0.1103
 IR Inten    --     60.5000                 0.5346                27.2104

                     22                     23                     24
                      A                      A                      A
 Frequencies --    207.6713               223.5494               234.1966
 Red. masses --      9.1595                 1.2060                 1.5248
 Frc consts  --      0.2327                 0.0355                 0.0493
 IR Inten    --      2.6915                 3.7074                10.4010

                     25                     26                     27
                      A                      A                      A
 Frequencies --    234.4094               242.3983               292.1542
 Red. masses --      1.2382                 1.9152                 2.9299
 Frc consts  --      0.0401                 0.0663                 0.1473
 IR Inten    --      2.6492                15.2855                34.5011

                     28                     29                     30
                      A                      A                      A
 Frequencies --    295.9476               305.3607               326.1695
 Red. masses --      2.6375                 2.4126                 2.4762
 Frc consts  --      0.1361                 0.1325                 0.1552
 IR Inten    --      1.4580                 0.8442                10.2108

                     31                     32                     33
                      A                      A                      A
 Frequencies --    355.7078               400.5618               401.2041
 Red. masses --      1.7706                 1.7404                 1.6602
 Frc consts  --      0.1320                 0.1645                 0.1574
 IR Inten    --      8.7423                33.0735                39.3209

                     34                     35                     36
                      A                      A                      A
 Frequencies --    409.8274               445.9305               492.3195
 Red. masses --      3.9303                 1.5418                 1.1861
 Frc consts  --      0.3889                 0.1806                 0.1694
 IR Inten    --     10.7959                93.9276               132.9742

                     37                     38                     39
                      A                      A                      A
 Frequencies --    507.6551               546.6679               556.2723
 Red. masses --      3.1782                 5.8360                 4.9606
 Frc consts  --      0.4826                 1.0276                 0.9044
 IR Inten    --     15.1806                19.0596                10.8288

                     40                     41                     42
                      A                      A                      A
 Frequencies --    573.9566               578.7800               592.8920
 Red. masses --      4.9874                 1.1095                 9.2740
 Frc consts  --      0.9680                 0.2190                 1.9207
 IR Inten    --     17.8996                90.4687                13.0033

                     43                     44                     45
                      A                      A                      A
 Frequencies --    626.2335               657.2715               662.5189
 Red. masses --      5.2871                 4.3120                11.4580
 Frc consts  --      1.2216                 1.0975                 2.9632
 IR Inten    --     14.0598                 8.6984                10.5645

                     46                     47                     48
                      A                      A                      A
 Frequencies --    687.8162               708.7217               714.2391
 Red. masses --      5.9027                 1.9205                 5.9812
 Frc consts  --      1.6453                 0.5684                 1.7977
 IR Inten    --      7.8705                 0.9603                 8.1986

                     49                     50                     51
                      A                      A                      A
 Frequencies --    741.6658               770.2362               772.7152
 Red. masses --      3.7104                 1.6073                 6.1062
 Frc consts  --      1.2025                 0.5618                 2.1481
 IR Inten    --     22.8689               116.4966                 5.2037

                     52                     53                     54
                      A                      A                      A
 Frequencies --    779.9126               786.1261               810.4734
 Red. masses --      1.8840                 7.6066                 3.5358
 Frc consts  --      0.6752                 2.7696                 1.3684
 IR Inten    --      6.3969                 6.1539                 6.3074

                     55                     56                     57
                      A                      A                      A
 Frequencies --    811.5627               869.3171               925.9480
 Red. masses --      9.9932                 1.0828                 2.1947
 Frc consts  --      3.8779                 0.4821                 1.1087
 IR Inten    --     28.3386                59.8579                 7.8364

                     58                     59                     60
                      A                      A                      A
 Frequencies --    935.9898               958.3841               959.9591
 Red. masses --      1.1600                 3.5331                 1.2716
 Frc consts  --      0.5987                 1.9120                 0.6904
 IR Inten    --      1.2769                 5.2550                 0.0512

                     61                     62                     63
                      A                      A                      A
 Frequencies --    967.0398               982.7711               991.8689
 Red. masses --      1.1907                 1.2134                 1.6087
 Frc consts  --      0.6561                 0.6905                 0.9325
 IR Inten    --      8.4056                 2.1995               102.6070

                     64                     65                     66
                      A                      A                      A
 Frequencies --    997.3205              1004.1159              1039.2881
 Red. masses --      3.9274                 8.3747                 1.6362
 Frc consts  --      2.3016                 4.9750                 1.0413
 IR Inten    --      1.1661               105.2780                14.5869

                     67                     68                     69
                      A                      A                      A
 Frequencies --   1071.9184              1079.2448              1094.1646
 Red. masses --      1.3038                 1.3114                 1.3072
 Frc consts  --      0.8826                 0.9000                 0.9221
 IR Inten    --     14.8000                43.1761                18.1492

                     70                     71                     72
                      A                      A                      A
 Frequencies --   1109.2841              1130.6089              1142.5275
 Red. masses --      1.4275                 1.8834                 1.4319
 Frc consts  --      1.0349                 1.4184                 1.1013
 IR Inten    --    116.7416                67.6927                 4.2733

                     73                     74                     75
                      A                      A                      A
 Frequencies --   1171.0945              1193.7198              1243.2400
 Red. masses --      2.2056                 1.7162                 1.3220
 Frc consts  --      1.7822                 1.4409                 1.2039
 IR Inten    --     13.4036                49.1186               192.2879

                     76                     77                     78
                      A                      A                      A
 Frequencies --   1255.8510              1298.6681              1314.8789
 Red. masses --      1.4131                 1.5240                 1.6198
 Frc consts  --      1.3131                 1.5144                 1.6500
 IR Inten    --     36.9309                31.6673               272.0014

                     79                     80                     81
                      A                      A                      A
 Frequencies --   1317.3152              1354.9469              1373.8391
 Red. masses --      5.0790                 1.1606                 1.2676
 Frc consts  --      5.1929                 1.2554                 1.4096
 IR Inten    --     59.1830                32.0097               101.1440

                     82                     83                     84
                      A                      A                      A
 Frequencies --   1374.2301              1398.3231              1400.2361
 Red. masses --      1.9992                 1.8224                 2.0519
 Frc consts  --      2.2245                 2.0995                 2.3703
 IR Inten    --     63.3102                39.8215               336.3006

                     85                     86                     87
                      A                      A                      A
 Frequencies --   1410.2410              1425.5414              1443.4370
 Red. masses --      1.7451                 1.2069                 1.3077
 Frc consts  --      2.0448                 1.4451                 1.6053
 IR Inten    --    209.5278                 5.7056                12.5820

                     88                     89                     90
                      A                      A                      A
 Frequencies --   1454.3442              1469.4489              1476.7338
 Red. masses --      1.0694                 2.4907                 1.0592
 Frc consts  --      1.3327                 3.1688                 1.3609
 IR Inten    --      8.6267                53.7858                22.2263

                     91                     92                     93
                      A                      A                      A
 Frequencies --   1494.1132              1496.0248              1517.0953
 Red. masses --      1.0495                 1.0490                 1.0570
 Frc consts  --      1.3803                 1.3833                 1.4333
 IR Inten    --      9.5756                 3.7830                12.5495

                     94                     95                     96
                      A                      A                      A
 Frequencies --   1517.2918              1528.6291              1528.7491
 Red. masses --      1.0474                 1.0536                 1.0556
 Frc consts  --      1.4207                 1.4506                 1.4536
 IR Inten    --      6.8852                 5.5772                26.3925

                     97                     98                     99
                      A                      A                      A
 Frequencies --   1549.1834              1569.0419              1687.5806
 Red. masses --      2.8678                 4.0563                 1.7105
 Frc consts  --      4.0551                 5.8836                 2.8701
 IR Inten    --    234.0711                62.2732                97.2585

                    100                    101                    102
                      A                      A                      A
 Frequencies --   1709.2298              1718.4170              1735.0340
 Red. masses --      3.1934                 1.2150                 2.9601
 Frc consts  --      5.4968                 2.1138                 5.2502
 IR Inten    --    808.0190               110.2736               163.1519

                    103                    104                    105
                      A                      A                      A
 Frequencies --   1755.6160              1831.3429              3017.7675
 Red. masses --      7.1368                 9.1147                 1.0468
 Frc consts  --     12.9602                18.0107                 5.6169
 IR Inten    --    924.5484               263.2196               201.7002

                    106                    107                    108
                      A                      A                      A
 Frequencies --   3039.4429              3055.2177              3070.2177
 Red. masses --      1.0848                 1.0352                 1.0278
 Frc consts  --      5.9044                 5.6930                 5.7079
 IR Inten    --     26.6711                23.2791                33.4522

                    109                    110                    111
                      A                      A                      A
 Frequencies --   3077.0378              3122.3476              3144.4538
 Red. masses --      1.0298                 1.1026                 1.1028
 Frc consts  --      5.7449                 6.3334                 6.4245
 IR Inten    --      4.1697                26.5628                14.3166

                    112                    113                    114
                      A                      A                      A
 Frequencies --   3157.7948              3173.8981              3174.8918
 Red. masses --      1.0941                 1.1080                 1.1077
 Frc consts  --      6.4277                 6.5760                 6.5784
 IR Inten    --     62.8196                 0.6778                 3.5134

                    115                    116                    117
                      A                      A                      A
 Frequencies --   3177.7674              3190.5778              3198.4813
 Red. masses --      1.1064                 1.1091                 1.1069
 Frc consts  --      6.5828                 6.6520                 6.6721
 IR Inten    --      0.8830                39.8421                 1.5787

                    118                    119                    120
                      A                      A                      A
 Frequencies --   3217.2512              3234.7012              3236.0948
 Red. masses --      1.0889                 1.0812                 1.0935
 Frc consts  --      6.6405                 6.6654                 6.7473
 IR Inten    --     16.5285              1118.9693               367.0288

                    121                    122                    123
                      A                      A                      A
 Frequencies --   3436.4355              3478.6121              3517.4630
 Red. masses --      1.0507                 1.0821                 1.0902
 Frc consts  --      7.3103                 7.7152                 7.9475
 IR Inten    --     33.7187               489.5258                46.8681

                    124                    125                    126
                      A                      A                      A
 Frequencies --   3673.9891              3733.1032              3736.2040
 Red. masses --      1.0834                 1.0655                 1.0643
 Frc consts  --      8.6158                 8.7484                 8.7534
 IR Inten    --     57.4917                33.3808                22.8939

 - Thermochemistry -
 -------------------
 Temperature   298.150 Kelvin.  Pressure   1.00000 Atm.
 Atom     1 has atomic number  6 and mass  12.00000

 Molecular mass:   338.12601 amu.
 Principal axes and moments of inertia in atomic units:
                           1         2         3
     Eigenvalues --  6051.95332********************
           X            0.62678   0.77918   0.00536
           Y            0.76893  -0.61739  -0.16605
           Z            0.12607  -0.10819   0.98610
 This molecule is an asymmetric top.
 Rotational symmetry number  1.
 Warning -- assumption of classical behavior for rotation
           may cause significant error
 Rotational temperatures (Kelvin)      0.01431     0.00609     0.00449
 Rotational constants (GHZ):           0.29821     0.12691     0.09348
    1 imaginary frequencies ignored.
 Zero-point vibrational energy     931479.6 (Joules/Mol)
                                  222.62896 (Kcal/Mol)
 Warning -- explicit consideration of  41 degrees of freedom as
           vibrations may cause significant error
 Vibrational temperatures:     24.29    32.61    34.34    40.93    54.10
          (Kelvin)             66.56    70.99    73.85    88.71    90.46
                              124.02   147.39   157.12   172.89   177.45
                              232.95   245.21   264.09   275.07   275.99
                              298.79   321.64   336.96   337.26   348.76
                              420.34   425.80   439.35   469.28   511.78
                              576.32   577.24   589.65   641.59   708.34
                              730.40   786.53   800.35   825.79   832.73
                              853.04   901.01   945.67   953.22   989.61
                             1019.69  1027.63  1067.09  1108.20  1111.76
                             1122.12  1131.06  1166.09  1167.66  1250.75
                             1332.23  1346.68  1378.90  1381.17  1391.35
                             1413.99  1427.08  1434.92  1444.70  1495.30
                             1542.25  1552.79  1574.26  1596.01  1626.69
                             1643.84  1684.94  1717.49  1788.74  1806.89
                             1868.49  1891.82  1895.32  1949.46  1976.65
                             1977.21  2011.87  2014.62  2029.02  2051.03
                             2076.78  2092.47  2114.21  2124.69  2149.69
                             2152.44  2182.76  2183.04  2199.35  2199.53
                             2228.93  2257.50  2428.05  2459.20  2472.42
                             2496.32  2525.94  2634.89  4341.89  4373.07
                             4395.77  4417.35  4427.17  4492.36  4524.16
                             4543.36  4566.53  4567.96  4572.09  4590.52
                             4601.90  4628.90  4654.01  4656.01  4944.26
                             5004.94  5060.84  5286.04  5371.10  5375.56

 Zero-point correction=                           0.354782 (Hartree/Particle)
 Thermal correction to Energy=                    0.382024
 Thermal correction to Enthalpy=                  0.382968
 Thermal correction to Gibbs Free Energy=         0.292199
 Sum of electronic and zero-point Energies=          -1500.621967
 Sum of electronic and thermal Energies=             -1500.594724
 Sum of electronic and thermal Enthalpies=           -1500.593780
 Sum of electronic and thermal Free Energies=        -1500.684550

                     E (Thermal)             CV                S
                      KCal/Mol        Cal/Mol-Kelvin    Cal/Mol-Kelvin
 Total                  239.724             95.109            191.041
 Electronic               0.000              0.000              0.000
 Translational            0.889              2.981             43.349
 Rotational               0.889              2.981             35.762
 Vibrational            237.946             89.147            111.930
 Vibration     1          0.593              1.986              6.970
 Vibration     2          0.593              1.985              6.386
 Vibration     3          0.593              1.985              6.283
 Vibration     4          0.593              1.984              5.935
 Vibration     5          0.594              1.982              5.382
 Vibration     6          0.595              1.979              4.971
 Vibration     7          0.595              1.978              4.844
 Vibration     8          0.596              1.977              4.766
 Vibration     9          0.597              1.973              4.403
 Vibration    10          0.597              1.972              4.365
 Vibration    11          0.601              1.959              3.745
 Vibration    12          0.605              1.947              3.407
 Vibration    13          0.606              1.942              3.283
 Vibration    14          0.609              1.932              3.098
 Vibration    15          0.610              1.930              3.048
 Vibration    16          0.622              1.889              2.527
 Vibration    17          0.626              1.879              2.431
 Vibration    18          0.631              1.862              2.292
 Vibration    19          0.634              1.852              2.216
 Vibration    20          0.634              1.851              2.210
 Vibration    21          0.641              1.829              2.064
 Vibration    22          0.649              1.805              1.930
 Vibration    23          0.654              1.789              1.847
 Vibration    24          0.654              1.788              1.845
 Vibration    25          0.659              1.775              1.785
 Vibration    26          0.688              1.688              1.461
 Vibration    27          0.690              1.681              1.440
 Vibration    28          0.696              1.664              1.387
 Vibration    29          0.710              1.623              1.279
 Vibration    30          0.731              1.564              1.141
 Vibration    31          0.766              1.469              0.961
 Vibration    32          0.767              1.468              0.958
 Vibration    33          0.774              1.449              0.927
 Vibration    34          0.805              1.370              0.808
 Vibration    35          0.848              1.267              0.678
 Vibration    36          0.863              1.233              0.639
 Vibration    37          0.902              1.147              0.551
 Vibration    38          0.912              1.126              0.531
 Vibration    39          0.930              1.088              0.497
 Vibration    40          0.935              1.077              0.488
 Vibration    41          0.950              1.047              0.462

 Optimization completed.
    -- Stationary point found.
 Normal termination of Gaussian 09 at Fri Apr  9 03:54:54 2021.
