 Gaussian 09, Revision E.01,
 Gaussian 09:  EM64L-G09RevE.01 30-Nov-2015

 ----------------------------------------------------------------------
 # opt=(calcall,tight,ts,modredundant,noeigentest) freq apfd/6-31g(d) n
 osymm
 ----------------------------------------------------------------------

 -------------------
 Title Card Required
 -------------------
 Symbolic Z-matrix:
 Charge =  0 Multiplicity = 1

 SCF Done:  E(RAPFD) =  -1176.48647408     A.U. after   15 cycles
 SCF Done:  E(RAPFD) =  -1176.48693783     A.U. after   12 cycles
 SCF Done:  E(RAPFD) =  -1176.48677685     A.U. after   12 cycles
 SCF Done:  E(RAPFD) =  -1176.48698502     A.U. after   11 cycles
 SCF Done:  E(RAPFD) =  -1176.48699040     A.U. after   11 cycles
 SCF Done:  E(RAPFD) =  -1176.48699040     A.U. after    7 cycles
 SCF Done:  E(RAPFD) =  -1176.48699040     A.U. after    4 cycles
 Optimization completed.
    -- Stationary point found.
 ******    1 imaginary frequencies (negative Signs) ******
    1 imaginary frequencies ignored.
 Normal termination of Gaussian 09 at Wed Mar 24 04:32:26 2021.

 -------------------------------------------------------------------
 #N Geom=AllCheck Guess=TCheck SCRF=Check GenChk RAPFD/6-31G(d) Freq
 -------------------------------------------------------------------

 Structure from the checkpoint file:  "/localscratch/enas93.64554938.0/Gau-72886.chk"
 -------------------
 Title Card Required
 -------------------
 Charge =  0 Multiplicity = 1

                          Input orientation:
 ---------------------------------------------------------------------
 Center     Atomic      Atomic             Coordinates (Angstroms)
 Number     Number       Type             X           Y           Z
 ---------------------------------------------------------------------
      1          6           0       -2.161636   -1.912999    0.043300
      2          8           0       -2.060536   -1.218631    1.085886
      3          8           0       -3.359532   -2.559780   -0.163277
      4          8           0       -1.310278   -2.093218   -0.864556
      5          1           0       -3.895738   -2.316967    0.605761
      6          6           0        2.524626    1.247681    0.144254
      7          6           0        3.481190   -1.392232    0.225597
      8          6           0        4.327582   -0.357000    0.428195
      9          7           0        3.872926    0.920865    0.386771
     10          1           0        3.828334   -2.418220    0.254991
     11          1           0        5.386221   -0.487710    0.629057
     12          8           0        2.183751    2.424208    0.141143
     13          7           0        1.683784    0.195112   -0.073127
     14          6           0        2.094157   -1.081091   -0.033871
     15          7           0        1.221820   -2.052636   -0.239977
     16          1           0        0.174156   -1.935957   -0.450004
     17          1           0        1.556341   -3.003944   -0.201641
     18          1           0        4.485535    1.708908    0.544124
     19         16           0       -2.466391    1.377465   -0.349376
     20          6           0       -2.288111    3.053902   -1.011808
     21          1           0       -3.217256    3.617740   -0.887154
     22          1           0       -1.464886    3.586714   -0.524502
     23          1           0       -2.070817    2.961421   -2.078914
     24          6           0       -2.675052    1.733969    1.408063
     25          1           0       -1.810436    2.283789    1.794217
     26          1           0       -3.591777    2.306798    1.573398
     27          1           0       -2.738589    0.751353    1.880886
     28          6           0       -0.308403    0.751589   -0.256787
     29          1           0       -0.572333    0.062571    0.542238
     30          1           0       -0.305639    0.358925   -1.263867
     31          1           0        0.056955    1.754778   -0.072377
 ---------------------------------------------------------------------

 SCF Done:  E(RAPFD) =  -1176.48699040     A.U. after    1 cycles

 Alpha  occ. eigenvalues --  -89.00283 -19.16309 -19.15736 -19.10283 -19.10083
 Alpha  occ. eigenvalues --  -14.43875 -14.38157 -14.37930 -10.34353 -10.31796
 Alpha  occ. eigenvalues --  -10.29986 -10.29647 -10.25380 -10.25134 -10.23904
 Alpha  occ. eigenvalues --  -10.23621  -8.01722  -5.96414  -5.96066  -5.95625
 Alpha  occ. eigenvalues --   -1.07790  -1.06583  -1.00110  -0.97395  -0.96158
 Alpha  occ. eigenvalues --   -0.93105  -0.89828  -0.84739  -0.81055  -0.73751
 Alpha  occ. eigenvalues --   -0.71761  -0.68364  -0.67749  -0.62635  -0.59297
 Alpha  occ. eigenvalues --   -0.58250  -0.55653  -0.54095  -0.49840  -0.48027
 Alpha  occ. eigenvalues --   -0.47556  -0.47102  -0.46524  -0.46337  -0.45587
 Alpha  occ. eigenvalues --   -0.44030  -0.43760  -0.43107  -0.42693  -0.42428
 Alpha  occ. eigenvalues --   -0.40366  -0.39865  -0.39503  -0.38512  -0.36883
 Alpha  occ. eigenvalues --   -0.36456  -0.34718  -0.32610  -0.28385  -0.26583
 Alpha  occ. eigenvalues --   -0.26258  -0.25276  -0.25074  -0.24669  -0.23028
 Alpha  occ. eigenvalues --   -0.20969
 Alpha virt. eigenvalues --   -0.03724   0.00369   0.01424   0.03723   0.06651
 Alpha virt. eigenvalues --    0.07776   0.09191   0.10618   0.12243   0.12672
 Alpha virt. eigenvalues --    0.12733   0.13604   0.13716   0.14465   0.15611

 Mulliken charges:
               1
     1  C    0.733320
     2  O   -0.620313
     3  O   -0.610528
     4  O   -0.624809
     5  H    0.398685
     6  C    0.796771
     7  C   -0.290777
     8  C    0.112311
     9  N   -0.683428
    10  H    0.189420
    11  H    0.210729
    12  O   -0.548291
    13  N   -0.651412
    14  C    0.638778
    15  N   -0.847678
    16  H    0.471105
    17  H    0.356608
    18  H    0.374395
    19  S    0.320511
    20  C   -0.686004
    21  H    0.217923
    22  H    0.221926
    23  H    0.226608
    24  C   -0.684974
    25  H    0.209125
    26  H    0.207411
    27  H    0.283521
    28  C   -0.506062
    29  H    0.289319
    30  H    0.253549
    31  H    0.242259
 Sum of Mulliken charges =  -0.00000

 Dipole moment (field-independent basis, Debye):
    X=              5.4495    Y=              3.8029    Z=              1.4819  Tot=              6.8085
 Quadrupole moment (field-independent basis, Debye-Ang):
   XX=            -69.8571   YY=            -99.2951   ZZ=           -102.9125
   XY=            -23.6949   XZ=             -0.9681   YZ=             -4.7516

  Exact polarizability: 201.385 -10.902 160.217   5.363   2.296  88.948
 Approx polarizability: 261.755   0.370 247.708   8.822  10.712 140.878

 ******    1 imaginary frequencies (negative Signs) ******

                      1                      2                      3
                      A                      A                      A
 Frequencies --   -471.3779                22.9524                41.5831
 Red. masses --     10.9413                 6.5323                 5.4712
 Frc consts  --      1.4324                 0.0020                 0.0056
 IR Inten    --    922.7677                 4.3185                 9.4886

                      4                      5                      6
                      A                      A                      A
 Frequencies --     46.2255                59.3437                63.6524
 Red. masses --      6.5625                 4.3309                 4.8346
 Frc consts  --      0.0083                 0.0090                 0.0115
 IR Inten    --      1.1528                 2.9003                 5.3636

                      7                      8                      9
                      A                      A                      A
 Frequencies --     98.8592               104.8474               120.0711
 Red. masses --      6.2389                 4.0218                 6.6654
 Frc consts  --      0.0359                 0.0260                 0.0566
 IR Inten    --      1.3575                 6.8678                 1.4397

                     10                     11                     12
                      A                      A                      A
 Frequencies --    140.3875               152.8655               163.8348
 Red. masses --      4.2485                 4.9193                 4.7585
 Frc consts  --      0.0493                 0.0677                 0.0753
 IR Inten    --      8.4801                15.9633                 0.9301

                     13                     14                     15
                      A                      A                      A
 Frequencies --    175.2922               190.8978               203.0254
 Red. masses --      1.3127                 4.9479                 2.7811
 Frc consts  --      0.0238                 0.1062                 0.0675
 IR Inten    --      2.5729                11.6988                12.1202

                     16                     17                     18
                      A                      A                      A
 Frequencies --    227.2582               237.3958               273.7029
 Red. masses --      7.5757                 1.3362                 1.4833
 Frc consts  --      0.2305                 0.0444                 0.0655
 IR Inten    --     82.7773                 2.9992                 2.1964

                     19                     20                     21
                      A                      A                      A
 Frequencies --    284.6728               336.5278               394.3689
 Red. masses --      1.6247                 3.3736                 3.5841
 Frc consts  --      0.0776                 0.2251                 0.3284
 IR Inten    --      2.3214                 8.4784                22.1982

                     22                     23                     24
                      A                      A                      A
 Frequencies --    411.5362               435.6621               545.6005
 Red. masses --      3.3856                 4.8564                 5.9289
 Frc consts  --      0.3378                 0.5431                 1.0399
 IR Inten    --      3.4577                14.7435                50.3383

                     25                     26                     27
                      A                      A                      A
 Frequencies --    555.2626               565.1107               586.9641
 Red. masses --      1.1476                 4.9469                 1.1427
 Frc consts  --      0.2085                 0.9308                 0.2320
 IR Inten    --    103.6871                 2.7104                88.4874

                     28                     29                     30
                      A                      A                      A
 Frequencies --    593.2779               600.6163               608.0335
 Red. masses --      5.3476                 5.5498                 1.1719
 Frc consts  --      1.1090                 1.1796                 0.2553
 IR Inten    --     17.6234                11.7391                28.1295

                     31                     32                     33
                      A                      A                      A
 Frequencies --    678.0955               707.9358               727.8830
 Red. masses --     11.5302                 4.8019                 2.0461
 Frc consts  --      3.1237                 1.4179                 0.6387
 IR Inten    --     32.2260                 3.1442                31.7895

                     34                     35                     36
                      A                      A                      A
 Frequencies --    761.3396               769.3451               778.3636
 Red. masses --      6.2732                 6.9509                 2.4307
 Frc consts  --      2.1424                 2.4240                 0.8676
 IR Inten    --      1.6229                74.7221                17.4652

                     37                     38                     39
                      A                      A                      A
 Frequencies --    787.6949               833.4569               935.7787
 Red. masses --      7.1536                11.4560                 1.1865
 Frc consts  --      2.6151                 4.6887                 0.6121
 IR Inten    --     16.4683                34.3759                 3.3140

                     40                     41                     42
                      A                      A                      A
 Frequencies --    962.5812               973.9629               983.4701
 Red. masses --      1.2846                 3.7648                 1.1758
 Frc consts  --      0.7013                 2.1041                 0.6701
 IR Inten    --      0.9297                45.4494                 0.5260

                     43                     44                     45
                      A                      A                      A
 Frequencies --   1010.8164              1016.3453              1024.2628
 Red. masses --      3.2455                 2.4923                 1.5710
 Frc consts  --      1.9538                 1.5168                 0.9710
 IR Inten    --     57.8712                29.3391                24.9008

                     46                     47                     48
                      A                      A                      A
 Frequencies --   1081.1633              1113.0274              1130.1588
 Red. masses --      1.3591                 1.1795                 1.7545
 Frc consts  --      0.9360                 0.8609                 1.3204
 IR Inten    --     33.3439                52.9608               233.7230

                     49                     50                     51
                      A                      A                      A
 Frequencies --   1144.6627              1148.8245              1181.3031
 Red. masses --      1.4795                 1.0683                 1.0735
 Frc consts  --      1.1421                 0.8307                 0.8826
 IR Inten    --      4.3679                20.4172                 4.9002

                     52                     53                     54
                      A                      A                      A
 Frequencies --   1228.7601              1248.8970              1252.7645
 Red. masses --      1.0958                 1.1818                 1.3108
 Frc consts  --      0.9748                 1.0860                 1.2120
 IR Inten    --     67.6975                50.8373               228.0201

                     55                     56                     57
                      A                      A                      A
 Frequencies --   1339.4108              1365.7308              1384.0996
 Red. masses --      6.9494                 1.1774                 1.1080
 Frc consts  --      7.3455                 1.2939                 1.2506
 IR Inten    --    104.2403                28.4148                 7.9734

                     58                     59                     60
                      A                      A                      A
 Frequencies --   1402.0426              1402.1561              1428.5127
 Red. masses --      1.1966                 1.5125                 3.0525
 Frc consts  --      1.3858                 1.7520                 3.6700
 IR Inten    --     14.9705                 5.2544               492.4167

                     61                     62                     63
                      A                      A                      A
 Frequencies --   1450.0523              1458.8109              1485.3366
 Red. masses --      1.4413                 2.5669                 1.0634
 Frc consts  --      1.7856                 3.2185                 1.3823
 IR Inten    --    121.5182                83.6633                35.3479

                     64                     65                     66
                      A                      A                      A
 Frequencies --   1491.8461              1503.1805              1514.5455
 Red. masses --      1.0484                 1.0474                 1.0522
 Frc consts  --      1.3747                 1.3943                 1.4221
 IR Inten    --      3.3933                 6.7930                23.7670

                     67                     68                     69
                      A                      A                      A
 Frequencies --   1570.6034              1602.4292              1716.9767
 Red. masses --      4.5636                 3.3386                 3.9283
 Frc consts  --      6.6326                 5.0509                 6.8231
 IR Inten    --     92.3736               122.1658               608.7185

                     70                     71                     72
                      A                      A                      A
 Frequencies --   1722.5658              1781.7072              1809.2476
 Red. masses --      2.0442                 3.0495                 8.3160
 Frc consts  --      3.5737                 5.7036                16.0384
 IR Inten    --     12.3842               632.3055               441.4243

                     73                     74                     75
                      A                      A                      A
 Frequencies --   2588.0327              3071.0434              3079.8467
 Red. masses --      1.1332                 1.0309                 1.0310
 Frc consts  --      4.4718                 5.7284                 5.7618
 IR Inten    --   2354.5729                27.5067                12.1221

                     76                     77                     78
                      A                      A                      A
 Frequencies --   3113.2158              3166.4680              3174.8735
 Red. masses --      1.0135                 1.1078                 1.1063
 Frc consts  --      5.7874                 6.5442                 6.5701
 IR Inten    --     42.1418                 4.3179                 1.3954

                     79                     80                     81
                      A                      A                      A
 Frequencies --   3184.3597              3202.7366              3241.4691
 Red. masses --      1.1053                 1.1056                 1.0901
 Frc consts  --      6.6032                 6.6818                 6.7481
 IR Inten    --      1.9493                11.8306                 2.2199

                     82                     83                     84
                      A                      A                      A
 Frequencies --   3262.3087              3309.7711              3360.4791
 Red. masses --      1.0988                 1.1236                 1.1215
 Frc consts  --      6.8898                 7.2520                 7.4621
 IR Inten    --      3.9615                75.4639                 7.6414

                     85                     86                     87
                      A                      A                      A
 Frequencies --   3653.3753              3666.9163              3791.6130
 Red. masses --      1.0790                 1.0793                 1.0643
 Frc consts  --      8.4854                 8.5503                 9.0149
 IR Inten    --     99.1995                48.7369                27.6358

 - Thermochemistry -
 -------------------
 Temperature   298.150 Kelvin.  Pressure   1.00000 Atm.
 Atom     1 has atomic number  6 and mass  12.00000

 Molecular mass:   249.07833 amu.
 Principal axes and moments of inertia in atomic units:
                           1         2         3
     Eigenvalues --  3039.617236222.380418588.24810
           X            0.99913  -0.02266  -0.03503
           Y            0.02275   0.99974   0.00215
           Z            0.03497  -0.00294   0.99938
 This molecule is an asymmetric top.
 Rotational symmetry number  1.
 Warning -- assumption of classical behavior for rotation
           may cause significant error
 Rotational temperatures (Kelvin)      0.02849     0.01392     0.01009
 Rotational constants (GHZ):           0.59374     0.29004     0.21014
    1 imaginary frequencies ignored.
 Zero-point vibrational energy     646082.0 (Joules/Mol)
                                  154.41732 (Kcal/Mol)
 Warning -- explicit consideration of  29 degrees of freedom as
           vibrations may cause significant error
 Vibrational temperatures:     33.02    59.83    66.51    85.38    91.58
          (Kelvin)            142.24   150.85   172.76   201.99   219.94
                              235.72   252.21   274.66   292.11   326.97
                              341.56   393.80   409.58   484.19   567.41
                              592.11   626.82   785.00   798.90   813.07
                              844.51   853.59   864.15   874.82   975.63
                             1018.56  1047.26  1095.40  1106.91  1119.89
                             1133.32  1199.16  1346.38  1384.94  1401.31
                             1414.99  1454.34  1462.29  1473.68  1555.55
                             1601.40  1626.04  1646.91  1652.90  1699.63
                             1767.91  1796.88  1802.45  1927.11  1964.98
                             1991.41  2017.22  2017.39  2055.31  2086.30
                             2098.90  2137.07  2146.43  2162.74  2179.09
                             2259.75  2305.54  2470.34  2478.38  2563.48
                             2603.10  3723.60  4418.54  4431.21  4479.22
                             4555.84  4567.93  4581.58  4608.02  4663.75
                             4693.73  4762.02  4834.97  5256.39  5275.87
                             5455.28

 Zero-point correction=                           0.246080 (Hartree/Particle)
 Thermal correction to Energy=                    0.264608
 Thermal correction to Enthalpy=                  0.265552
 Thermal correction to Gibbs Free Energy=         0.197439
 Sum of electronic and zero-point Energies=          -1176.240911
 Sum of electronic and thermal Energies=             -1176.222383
 Sum of electronic and thermal Enthalpies=           -1176.221439
 Sum of electronic and thermal Free Energies=        -1176.289551

                     E (Thermal)             CV                S
                      KCal/Mol        Cal/Mol-Kelvin    Cal/Mol-Kelvin
 Total                  166.044             65.427            143.355
 Electronic               0.000              0.000              0.000
 Translational            0.889              2.981             42.438
 Rotational               0.889              2.981             33.451
 Vibrational            164.266             59.465             67.466
 Vibration     1          0.593              1.985              6.361
 Vibration     2          0.594              1.981              5.182
 Vibration     3          0.595              1.979              4.973
 Vibration     4          0.597              1.974              4.479
 Vibration     5          0.597              1.972              4.341
 Vibration     6          0.604              1.950              3.477
 Vibration     7          0.605              1.945              3.362
 Vibration     8          0.609              1.933              3.099
 Vibration     9          0.615              1.913              2.799
 Vibration    10          0.619              1.899              2.636
 Vibration    11          0.623              1.887              2.505
 Vibration    12          0.627              1.873              2.378
 Vibration    13          0.634              1.852              2.219
 Vibration    14          0.639              1.836              2.106
 Vibration    15          0.651              1.799              1.901
 Vibration    16          0.656              1.783              1.822
 Vibration    17          0.676              1.722              1.573
 Vibration    18          0.683              1.702              1.505
 Vibration    19          0.717              1.603              1.229
 Vibration    20          0.761              1.482              0.984
 Vibration    21          0.776              1.445              0.921
 Vibration    22          0.796              1.392              0.840
 Vibration    23          0.901              1.149              0.553
 Vibration    24          0.911              1.128              0.533
 Vibration    25          0.921              1.107              0.514
 Vibration    26          0.944              1.060              0.473
 Vibration    27          0.951              1.046              0.461
 Vibration    28          0.959              1.030              0.449
 Vibration    29          0.967              1.015              0.436

 Optimization completed.
    -- Stationary point found.
 Normal termination of Gaussian 09 at Wed Mar 24 04:35:57 2021.
