 Gaussian 09, Revision E.01,
 Gaussian 09:  EM64L-G09RevE.01 30-Nov-2015

 ----------------------------------------------------
 # opt=(tight,modredundant) freq apfd/6-31g(d) nosymm
 ----------------------------------------------------

 -------------------
 Title Card Required
 -------------------
 Symbolic Z-matrix:
 Charge =  0 Multiplicity = 1

 SCF Done:  E(RAPFD) =  -1555.54048242     A.U. after   15 cycles
 SCF Done:  E(RAPFD) =  -1555.54085422     A.U. after   11 cycles
 SCF Done:  E(RAPFD) =  -1555.54092485     A.U. after   10 cycles
 SCF Done:  E(RAPFD) =  -1555.54094699     A.U. after    9 cycles
 SCF Done:  E(RAPFD) =  -1555.54096084     A.U. after    9 cycles
 SCF Done:  E(RAPFD) =  -1555.54096959     A.U. after    8 cycles
 SCF Done:  E(RAPFD) =  -1555.54097800     A.U. after    9 cycles
 SCF Done:  E(RAPFD) =  -1555.54098502     A.U. after    8 cycles
 SCF Done:  E(RAPFD) =  -1555.54098879     A.U. after    8 cycles
 SCF Done:  E(RAPFD) =  -1555.54099148     A.U. after    8 cycles
 SCF Done:  E(RAPFD) =  -1555.54103429     A.U. after    5 cycles
 SCF Done:  E(RAPFD) =  -1555.54103429     A.U. after    5 cycles
 SCF Done:  E(RAPFD) =  -1555.54103429     A.U. after    5 cycles
 SCF Done:  E(RAPFD) =  -1555.54103429     A.U. after    5 cycles
 SCF Done:  E(RAPFD) =  -1555.54103429     A.U. after    5 cycles
 SCF Done:  E(RAPFD) =  -1555.54103429     A.U. after    5 cycles
 SCF Done:  E(RAPFD) =  -1555.54103429     A.U. after    4 cycles
 SCF Done:  E(RAPFD) =  -1555.54103429     A.U. after    4 cycles
 SCF Done:  E(RAPFD) =  -1555.54103430     A.U. after    4 cycles
 Optimization completed.
    -- Stationary point found.
 Normal termination of Gaussian 09 at Wed Mar 24 06:39:11 2021.

 -------------------------------------------------------------------
 #N Geom=AllCheck Guess=TCheck SCRF=Check GenChk RAPFD/6-31G(d) Freq
 -------------------------------------------------------------------

 Structure from the checkpoint file:  "/localscratch/enas93.64557593.0/Gau-48683.chk"
 -------------------
 Title Card Required
 -------------------
 Charge =  0 Multiplicity = 1

                          Input orientation:
 ---------------------------------------------------------------------
 Center     Atomic      Atomic             Coordinates (Angstroms)
 Number     Number       Type             X           Y           Z
 ---------------------------------------------------------------------
      1          6           0       -0.801774    2.752993    1.511743
      2          6           0       -2.783574    1.236361    2.797017
      3          6           0       -2.825048    2.589372    2.856194
      4          7           0       -1.868818    3.331218    2.245205
      5          1           0       -3.537487    0.626739    3.281531
      6          1           0       -3.602899    3.136586    3.380444
      7          8           0       -0.001886    3.504010    0.956595
      8          7           0       -0.752589    1.399043    1.476011
      9          6           0       -1.680979    0.655555    2.067364
     10          7           0       -1.563140   -0.672277    1.983017
     11          1           0       -0.813972   -1.112638    1.417384
     12          1           0       -2.297246   -1.266937    2.331721
     13          1           0       -1.889385    4.341095    2.263898
     14         15           0       -0.003011   -2.410907   -0.882451
     15          8           0        0.219163   -1.545508   -2.094223
     16          8           0        0.409743   -1.962076    0.500297
     17          8           0       -1.589791   -2.803239   -0.790163
     18          8           0        0.748550   -3.835871   -1.191348
     19          1           0       -1.952920   -2.774088   -1.687083
     20          1           0        0.835534   -4.313685   -0.353916
     21         16           0        2.037520    0.400001   -2.074478
     22          6           0        2.958693   -1.041291   -1.461908
     23          1           0        4.027149   -0.841260   -1.574326
     24          1           0        2.690759   -1.219183   -0.417935
     25          1           0        2.640344   -1.892860   -2.060538
     26          6           0        3.298123    1.684181   -1.813765
     27          1           0        2.842233    2.647723   -2.052625
     28          1           0        3.639306    1.687904   -0.774927
     29          1           0        4.135799    1.502068   -2.491753
     30          6           0        0.878952    0.869744   -0.749851
     31          1           0        1.059634    1.901673   -0.438058
     32          1           0       -0.117071    0.746530   -1.165749
     33          1           0        0.986491    0.174838    0.081420
 ---------------------------------------------------------------------

 SCF Done:  E(RAPFD) =  -1555.54103430     A.U. after    1 cycles

 Alpha  occ. eigenvalues --  -89.06370 -77.24415 -19.17533 -19.17388 -19.12935
 Alpha  occ. eigenvalues --  -19.10867 -19.10600 -14.41535 -14.36386 -14.32887
 Alpha  occ. eigenvalues --  -10.31311 -10.28983 -10.27552 -10.26863 -10.25425
 Alpha  occ. eigenvalues --  -10.22589 -10.21444  -8.07479  -6.65069  -6.02083
 Alpha  occ. eigenvalues --   -6.01961  -6.01412  -4.79836  -4.79736  -4.79566
 Alpha  occ. eigenvalues --   -1.05010  -1.04760  -0.99872  -0.97387  -0.94902
 Alpha  occ. eigenvalues --   -0.94232  -0.91432  -0.89388  -0.86967  -0.78756
 Alpha  occ. eigenvalues --   -0.75580  -0.73824  -0.66493  -0.64997  -0.63613
 Alpha  occ. eigenvalues --   -0.57046  -0.57020  -0.55443  -0.52262  -0.51682
 Alpha  occ. eigenvalues --   -0.49489  -0.49289  -0.48703  -0.48305  -0.45505
 Alpha  occ. eigenvalues --   -0.45049  -0.44404  -0.43941  -0.43305  -0.42398
 Alpha  occ. eigenvalues --   -0.41587  -0.40569  -0.40247  -0.39615  -0.39392
 Alpha  occ. eigenvalues --   -0.38604  -0.37092  -0.34483  -0.33890  -0.33124
 Alpha  occ. eigenvalues --   -0.32764  -0.30418  -0.28223  -0.26328  -0.25660
 Alpha  occ. eigenvalues --   -0.25314  -0.24895  -0.24186  -0.23558  -0.22820
 Alpha virt. eigenvalues --   -0.01456   0.01001   0.02232   0.03762   0.06524
 Alpha virt. eigenvalues --    0.08232   0.08626   0.09931   0.11878   0.12330
 Alpha virt. eigenvalues --    0.13097   0.13529   0.13976   0.14727   0.15381

 Mulliken charges:
               1
     1  C    0.740002
     2  C   -0.278539
     3  C    0.105038
     4  N   -0.671435
     5  H    0.175669
     6  H    0.198544
     7  O   -0.569018
     8  N   -0.615927
     9  C    0.567029
    10  N   -0.851708
    11  H    0.463818
    12  H    0.350909
    13  H    0.364184
    14  P    1.150457
    15  O   -0.684143
    16  O   -0.705069
    17  O   -0.685075
    18  O   -0.683629
    19  H    0.432257
    20  H    0.428242
    21  S    0.629196
    22  C   -0.715095
    23  H    0.210866
    24  H    0.270486
    25  H    0.285832
    26  C   -0.721652
    27  H    0.245666
    28  H    0.239939
    29  H    0.225733
    30  C   -0.704537
    31  H    0.255531
    32  H    0.258677
    33  H    0.287753
 Sum of Mulliken charges =  -0.00000

 Dipole moment (field-independent basis, Debye):
    X=              0.8951    Y=              3.1608    Z=              0.9419  Tot=              3.4175
 Quadrupole moment (field-independent basis, Debye-Ang):
   XX=            -78.8299   YY=           -112.3304   ZZ=           -106.2499
   XY=             -4.6312   XZ=            -20.3779   YZ=             -2.8684

  Exact polarizability: 148.311   7.040 177.139 -38.178   4.830 116.077
 Approx polarizability: 203.250  18.786 266.668 -41.240  -7.690 168.233

                      1                      2                      3
                      A                      A                      A
 Frequencies --     21.0511                26.2118                39.5758
 Red. masses --      5.9697                 6.1891                 4.8706
 Frc consts  --      0.0016                 0.0025                 0.0045
 IR Inten    --      4.6453                 9.3954                 4.9723

                      4                      5                      6
                      A                      A                      A
 Frequencies --     61.1823                65.6703                72.5619
 Red. masses --      5.8469                 4.7062                 5.2620
 Frc consts  --      0.0129                 0.0120                 0.0163
 IR Inten    --      5.1140                 2.3490                 8.1068

                      7                      8                      9
                      A                      A                      A
 Frequencies --     77.9553                99.0778               130.6586
 Red. masses --      3.7637                 5.7396                 4.3567
 Frc consts  --      0.0135                 0.0332                 0.0438
 IR Inten    --      1.3043                 3.4492                19.8844

                     10                     11                     12
                      A                      A                      A
 Frequencies --    148.5017               150.3242               155.8886
 Red. masses --      3.4257                 2.9351                 2.9934
 Frc consts  --      0.0445                 0.0391                 0.0429
 IR Inten    --      6.1465                 8.1847                 0.7370

                     13                     14                     15
                      A                      A                      A
 Frequencies --    165.4092               181.7766               198.3909
 Red. masses --      4.1042                 1.2497                 5.5789
 Frc consts  --      0.0662                 0.0243                 0.1294
 IR Inten    --      5.7444                 1.9349                 2.0948

                     16                     17                     18
                      A                      A                      A
 Frequencies --    213.4978               240.5354               262.1712
 Red. masses --      2.0615                 1.5805                 1.0523
 Frc consts  --      0.0554                 0.0539                 0.0426
 IR Inten    --     21.8756               144.5361                 1.5296

                     19                     20                     21
                      A                      A                      A
 Frequencies --    311.4569               334.4119               337.2942
 Red. masses --      1.3433                 2.9103                 3.3194
 Frc consts  --      0.0768                 0.1918                 0.2225
 IR Inten    --     20.3795                 1.1336                 5.9769

                     22                     23                     24
                      A                      A                      A
 Frequencies --    344.0380               364.6418               390.6960
 Red. masses --      2.8351                 3.2487                 2.5579
 Frc consts  --      0.1977                 0.2545                 0.2300
 IR Inten    --      1.6454                 0.2426                 2.7929

                     25                     26                     27
                      A                      A                      A
 Frequencies --    408.8081               428.6952               449.8506
 Red. masses --      3.8512                 2.8658                 1.2552
 Frc consts  --      0.3792                 0.3103                 0.1497
 IR Inten    --      3.6844                 4.5680               118.6407

                     28                     29                     30
                      A                      A                      A
 Frequencies --    455.5735               501.9275               516.1478
 Red. masses --      4.1479                10.5787                 9.6641
 Frc consts  --      0.5072                 1.5702                 1.5169
 IR Inten    --     50.6906               108.4855                82.4671

                     31                     32                     33
                      A                      A                      A
 Frequencies --    544.5565               556.2762               592.3637
 Red. masses --      5.3721                 5.4720                 7.9538
 Frc consts  --      0.9386                 0.9976                 1.6444
 IR Inten    --     37.4689                 1.2528                 5.6116

                     34                     35                     36
                      A                      A                      A
 Frequencies --    610.7738               652.6788               703.2956
 Red. masses --      1.1902                 4.7857                 5.1519
 Frc consts  --      0.2616                 1.2011                 1.5014
 IR Inten    --     46.1808                16.0880                10.8415

                     37                     38                     39
                      A                      A                      A
 Frequencies --    714.3726               728.0899               773.3652
 Red. masses --      5.4238                 1.7574                 2.8876
 Frc consts  --      1.6308                 0.5489                 1.0175
 IR Inten    --     10.5021                47.2982                59.4755

                     40                     41                     42
                      A                      A                      A
 Frequencies --    779.2321               787.0967               820.8785
 Red. masses --      7.9964                 7.6825                11.8406
 Frc consts  --      2.8607                 2.8042                 4.7009
 IR Inten    --     15.1333                10.4137               100.9007

                     43                     44                     45
                      A                      A                      A
 Frequencies --    876.6362               910.2227               925.6709
 Red. masses --      3.1214                 1.5092                 1.1940
 Frc consts  --      1.4133                 0.7367                 0.6028
 IR Inten    --    167.5258               179.4234                 3.3275

                     46                     47                     48
                      A                      A                      A
 Frequencies --    955.8066               957.4663               960.1360
 Red. masses --      2.1846                 1.2908                 1.5143
 Frc consts  --      1.1759                 0.6972                 0.8225
 IR Inten    --      6.0410                 0.7162                 3.9218

                     49                     50                     51
                      A                      A                      A
 Frequencies --    970.4597              1003.3638              1027.8533
 Red. masses --      1.1982                 3.7124                 1.2519
 Frc consts  --      0.6649                 2.2020                 0.7793
 IR Inten    --     13.9781                 0.3618                35.3739

                     52                     53                     54
                      A                      A                      A
 Frequencies --   1047.3084              1056.5873              1075.4590
 Red. masses --      1.2616                 1.1865                 1.3440
 Frc consts  --      0.8153                 0.7804                 0.9159
 IR Inten    --     12.8947               230.3692                19.8301

                     55                     56                     57
                      A                      A                      A
 Frequencies --   1079.1756              1109.7964              1135.5217
 Red. masses --      1.3735                 7.0124                 1.9022
 Frc consts  --      0.9425                 5.0886                 1.4451
 IR Inten    --    120.0550               269.9246                74.6000

                     58                     59                     60
                      A                      A                      A
 Frequencies --   1141.3420              1240.8522              1281.5793
 Red. masses --      1.4897                 1.1772                 6.1729
 Frc consts  --      1.1434                 1.0680                 5.9735
 IR Inten    --      5.5607                41.3350               330.0235

                     61                     62                     63
                      A                      A                      A
 Frequencies --   1335.4347              1357.0576              1365.1460
 Red. masses --      6.2081                 1.1619                 1.1748
 Frc consts  --      6.5231                 1.2607                 1.2899
 IR Inten    --     80.1926                 3.7360                 5.9560

                     64                     65                     66
                      A                      A                      A
 Frequencies --   1392.6433              1404.2349              1446.7029
 Red. masses --      1.5848                 1.1673                 1.0529
 Frc consts  --      1.8109                 1.3561                 1.2983
 IR Inten    --      9.0322                 7.6745                10.1732

                     67                     68                     69
                      A                      A                      A
 Frequencies --   1460.3323              1469.5734              1479.9199
 Red. masses --      2.5859                 1.0555                 1.0527
 Frc consts  --      3.2491                 1.3431                 1.3585
 IR Inten    --     49.1063                 9.0305                 8.0908

                     70                     71                     72
                      A                      A                      A
 Frequencies --   1490.5685              1494.5653              1508.4345
 Red. masses --      1.0546                 1.0482                 1.0541
 Frc consts  --      1.3805                 1.3795                 1.4131
 IR Inten    --      7.1027                 5.4176                41.4107

                     73                     74                     75
                      A                      A                      A
 Frequencies --   1572.6683              1586.0919              1704.0194
 Red. masses --      3.1402                 5.2759                 1.7354
 Frc consts  --      4.5759                 7.8199                 2.9689
 IR Inten    --    132.4079               158.7817                15.1433

                     76                     77                     78
                      A                      A                      A
 Frequencies --   1740.7725              1800.4946              3081.6348
 Red. masses --      3.0164                 8.1074                 1.0335
 Frc consts  --      5.3854                15.4852                 5.7827
 IR Inten    --    632.5818               540.7344                17.6960

                     79                     80                     81
                      A                      A                      A
 Frequencies --   3083.1809              3111.3658              3184.9398
 Red. masses --      1.0312                 1.0326                 1.1088
 Frc consts  --      5.7756                 5.8894                 6.6267
 IR Inten    --      4.8532                38.1176                 1.0341

                     82                     83                     84
                      A                      A                      A
 Frequencies --   3186.9845              3197.5320              3197.8113
 Red. masses --      1.1096                 1.0945                 1.0926
 Frc consts  --      6.6400                 6.5930                 6.5826
 IR Inten    --      2.6106               627.0918               756.1398

                     85                     86                     87
                      A                      A                      A
 Frequencies --   3227.1136              3232.3034              3237.0930
 Red. masses --      1.1083                 1.0900                 1.1045
 Frc consts  --      6.8004                 6.7094                 6.8194
 IR Inten    --    154.2358                 0.4889                 1.5381

                     88                     89                     90
                      A                      A                      A
 Frequencies --   3256.0624              3264.5087              3652.5253
 Red. masses --      1.0982                 1.1047                 1.0788
 Frc consts  --      6.8600                 6.9364                 8.4798
 IR Inten    --      4.3073                 9.2897                73.2048

                     91                     92                     93
                      A                      A                      A
 Frequencies --   3708.2073              3809.1656              3813.0105
 Red. masses --      1.0827                 1.0651                 1.0653
 Frc consts  --      8.7714                 9.1058                 9.1256
 IR Inten    --     57.1808                73.7658                53.7328

 - Thermochemistry -
 -------------------
 Temperature   298.150 Kelvin.  Pressure   1.00000 Atm.
 Atom     1 has atomic number  6 and mass  12.00000

 Molecular mass:   285.05483 amu.
 Principal axes and moments of inertia in atomic units:
                           1         2         3
     Eigenvalues --  3838.540327462.48847**********
           X           -0.47341   0.62284   0.62286
           Y            0.65275   0.72286  -0.22671
           Z            0.59144  -0.29924   0.74877
 This molecule is an asymmetric top.
 Rotational symmetry number  1.
 Warning -- assumption of classical behavior for rotation
           may cause significant error
 Rotational temperatures (Kelvin)      0.02256     0.01161     0.00817
 Rotational constants (GHZ):           0.47016     0.24184     0.17033
 Zero-point vibrational energy     676035.4 (Joules/Mol)
                                  161.57634 (Kcal/Mol)
 Warning -- explicit consideration of  34 degrees of freedom as
           vibrations may cause significant error
 Vibrational temperatures:     30.29    37.71    56.94    88.03    94.48
          (Kelvin)            104.40   112.16   142.55   187.99   213.66
                              216.28   224.29   237.99   261.54   285.44
                              307.18   346.08   377.21   448.12   481.14
                              485.29   494.99   524.64   562.12   588.18
                              616.80   647.23   655.47   722.16   742.62
                              783.49   800.36   852.28   878.77   939.06
                             1011.88  1027.82  1047.56  1112.70  1121.14
                             1132.46  1181.06  1261.28  1309.61  1331.83
                             1375.19  1377.58  1381.42  1396.27  1443.61
                             1478.85  1506.84  1520.19  1547.34  1552.69
                             1596.75  1633.76  1642.13  1785.31  1843.90
                             1921.39  1952.50  1964.14  2003.70  2020.38
                             2081.48  2101.09  2114.39  2129.27  2144.59
                             2150.34  2170.30  2262.72  2282.03  2451.70
                             2504.58  2590.51  4433.78  4436.00  4476.56
                             4582.41  4585.35  4600.53  4600.93  4643.09
                             4650.56  4657.45  4684.74  4696.89  5255.16
                             5335.28  5480.53  5486.06

 Zero-point correction=                           0.257488 (Hartree/Particle)
 Thermal correction to Energy=                    0.278667
 Thermal correction to Enthalpy=                  0.279611
 Thermal correction to Gibbs Free Energy=         0.205530
 Sum of electronic and zero-point Energies=          -1555.283546
 Sum of electronic and thermal Energies=             -1555.262367
 Sum of electronic and thermal Enthalpies=           -1555.261423
 Sum of electronic and thermal Free Energies=        -1555.335504

                     E (Thermal)             CV                S
                      KCal/Mol        Cal/Mol-Kelvin    Cal/Mol-Kelvin
 Total                  174.866             75.742            155.917
 Electronic               0.000              0.000              0.000
 Translational            0.889              2.981             42.840
 Rotational               0.889              2.981             34.072
 Vibrational            173.089             69.780             79.004
 Vibration     1          0.593              1.985              6.533
 Vibration     2          0.593              1.985              6.097
 Vibration     3          0.594              1.981              5.280
 Vibration     4          0.597              1.973              4.419
 Vibration     5          0.597              1.971              4.279
 Vibration     6          0.599              1.967              4.083
 Vibration     7          0.599              1.964              3.942
 Vibration     8          0.604              1.950              3.472
 Vibration     9          0.612              1.923              2.936
 Vibration    10          0.618              1.904              2.691
 Vibration    11          0.618              1.902              2.668
 Vibration    12          0.620              1.896              2.599
 Vibration    13          0.624              1.885              2.487
 Vibration    14          0.630              1.865              2.310
 Vibration    15          0.637              1.842              2.148
 Vibration    16          0.644              1.820              2.014
 Vibration    17          0.658              1.778              1.799
 Vibration    18          0.669              1.742              1.647
 Vibration    19          0.700              1.652              1.355
 Vibration    20          0.716              1.607              1.239
 Vibration    21          0.718              1.601              1.225
 Vibration    22          0.723              1.587              1.193
 Vibration    23          0.738              1.545              1.102
 Vibration    24          0.758              1.490              0.997
 Vibration    25          0.773              1.451              0.931
 Vibration    26          0.790              1.408              0.863
 Vibration    27          0.809              1.361              0.796
 Vibration    28          0.814              1.349              0.779
 Vibration    29          0.857              1.246              0.653
 Vibration    30          0.871              1.214              0.619
 Vibration    31          0.900              1.152              0.556
 Vibration    32          0.912              1.126              0.531
 Vibration    33          0.950              1.048              0.463
 Vibration    34          0.970              1.009              0.431

 Normal termination of Gaussian 09 at Wed Mar 24 06:42:17 2021.
