 Gaussian 09, Revision E.01,
 Gaussian 09:  EM64L-G09RevE.01 30-Nov-2015

 --------------------------------
 # opt freq b3lyp/6-31g(d) nosymm
 --------------------------------

 -------------------
 Title Card Required
 -------------------
 Symbolic Z-matrix:
 Charge =  0 Multiplicity = 1

 SCF Done:  E(RB3LYP) =  -1350.94994188     A.U. after   15 cycles
 SCF Done:  E(RB3LYP) =  -1350.95038372     A.U. after   13 cycles
 SCF Done:  E(RB3LYP) =  -1350.95057240     A.U. after   14 cycles
 SCF Done:  E(RB3LYP) =  -1350.95079823     A.U. after   12 cycles
 SCF Done:  E(RB3LYP) =  -1350.95085542     A.U. after   12 cycles
 SCF Done:  E(RB3LYP) =  -1350.95091892     A.U. after   12 cycles
 SCF Done:  E(RB3LYP) =  -1350.95094817     A.U. after   10 cycles
 SCF Done:  E(RB3LYP) =  -1350.95097388     A.U. after   10 cycles
 SCF Done:  E(RB3LYP) =  -1350.95098508     A.U. after   11 cycles
 SCF Done:  E(RB3LYP) =  -1350.95099762     A.U. after   10 cycles
 SCF Done:  E(RB3LYP) =  -1350.95283913     A.U. after   10 cycles
 SCF Done:  E(RB3LYP) =  -1350.95284212     A.U. after    8 cycles
 SCF Done:  E(RB3LYP) =  -1350.95284389     A.U. after   10 cycles
 SCF Done:  E(RB3LYP) =  -1350.95284468     A.U. after    8 cycles
 SCF Done:  E(RB3LYP) =  -1350.95284538     A.U. after    8 cycles
 SCF Done:  E(RB3LYP) =  -1350.95284586     A.U. after    8 cycles
 SCF Done:  E(RB3LYP) =  -1350.95284606     A.U. after    7 cycles
 SCF Done:  E(RB3LYP) =  -1350.95284611     A.U. after    7 cycles
 SCF Done:  E(RB3LYP) =  -1350.95284613     A.U. after    6 cycles
 Optimization completed.
    -- Stationary point found.
 Normal termination of Gaussian 09 at Fri Feb 12 12:27:30 2021.

 --------------------------------------------------------------------
 #N Geom=AllCheck Guess=TCheck SCRF=Check GenChk RB3LYP/6-31G(d) Freq
 --------------------------------------------------------------------

 Structure from the checkpoint file:  "/localscratch/enas93.61778895.0/Gau-112271.chk"
 -------------------
 Title Card Required
 -------------------
 Charge =  0 Multiplicity = 1

                          Input orientation:
 ---------------------------------------------------------------------
 Center     Atomic      Atomic             Coordinates (Angstroms)
 Number     Number       Type             X           Y           Z
 ---------------------------------------------------------------------
      1          6           0       -0.120828    0.696338   -0.034600
      2          6           0       -2.692440    0.671983   -1.212433
      3          6           0       -2.578183    1.061459    0.217427
      4          7           0       -1.193928    1.365312    0.509822
      5          1           0       -3.648933    0.769564   -1.710731
      6          1           0       -3.174437    1.951330    0.442886
      7          8           0        0.992313    0.726905    0.484435
      8          7           0       -0.376635    0.029367   -1.230867
      9          6           0       -1.633635    0.128844   -1.851224
     10          7           0       -1.692465   -0.420792   -3.133500
     11          1           0       -0.947223   -0.126694   -3.757151
     12          1           0       -2.597879   -0.289513   -3.568924
     13          1           0       -0.971204    1.745148    1.420800
     14         16           0        4.144663   -1.616056    0.286397
     15          6           0        4.412128    0.184476    0.107769
     16          1           0        4.949863    0.339396   -0.831933
     17          1           0        3.452724    0.707183    0.073375
     18          1           0        5.022616    0.573343    0.929140
     19          6           0        0.712348   -0.742933   -1.831192
     20          1           0        0.314511   -1.673974   -2.238370
     21          1           0        1.448967   -0.958721   -1.058754
     22          1           0        1.215091   -0.182686   -2.631085
     23          6           0        3.192618   -1.617574    1.847916
     24          1           0        2.898102   -2.651916    2.045873
     25          1           0        3.806275   -1.260391    2.681264
     26          1           0        2.299566   -0.995328    1.747006
     27          6           0       -3.362955    0.545408    2.919767
     28          1           0       -2.356938    0.730239    3.310601
     29          1           0       -3.916268    1.489143    2.861477
     30          1           0       -3.882747   -0.116466    3.617387
     31         16           0       -3.322799   -0.303875    1.298286
 ---------------------------------------------------------------------

 SCF Done:  E(RB3LYP) =  -1350.95284613     A.U. after    1 cycles

 Alpha  occ. eigenvalues --  -88.86087 -88.85313 -19.11445 -14.38156 -14.36451
 Alpha  occ. eigenvalues --  -14.36071 -10.31789 -10.27332 -10.26327 -10.21622
 Alpha  occ. eigenvalues --  -10.21064 -10.18892 -10.18870 -10.17828  -7.92220
 Alpha  occ. eigenvalues --   -7.91381  -5.88734  -5.88367  -5.87911  -5.87671
 Alpha  occ. eigenvalues --   -5.87540  -5.86827  -1.05395  -0.97692  -0.93397
 Alpha  occ. eigenvalues --   -0.90025  -0.79122  -0.77386  -0.76218  -0.72276
 Alpha  occ. eigenvalues --   -0.68465  -0.67312  -0.64428  -0.61192  -0.57926
 Alpha  occ. eigenvalues --   -0.56324  -0.53614  -0.51736  -0.49765  -0.47978
 Alpha  occ. eigenvalues --   -0.46720  -0.44235  -0.43763  -0.42754  -0.42337
 Alpha  occ. eigenvalues --   -0.42133  -0.41567  -0.40823  -0.40486  -0.40140
 Alpha  occ. eigenvalues --   -0.38825  -0.38788  -0.37214  -0.35517  -0.34520
 Alpha  occ. eigenvalues --   -0.32551  -0.29412  -0.27588  -0.27082  -0.25338
 Alpha  occ. eigenvalues --   -0.22061  -0.20275  -0.20122
 Alpha virt. eigenvalues --    0.01105   0.02985   0.05788   0.06219   0.06407
 Alpha virt. eigenvalues --    0.06782   0.09794   0.10268   0.11069   0.11541
 Alpha virt. eigenvalues --    0.12656   0.13739   0.13952   0.14357   0.14697

 Mulliken charges:
               1
     1  C    0.761525
     2  C   -0.248423
     3  C   -0.120035
     4  N   -0.603928
     5  H    0.132364
     6  H    0.171041
     7  O   -0.536180
     8  N   -0.531015
     9  C    0.544253
    10  N   -0.779298
    11  H    0.330182
    12  H    0.333703
    13  H    0.337893
    14  S    0.062019
    15  C   -0.595509
    16  H    0.168046
    17  H    0.214617
    18  H    0.167905
    19  C   -0.353803
    20  H    0.185166
    21  H    0.237864
    22  H    0.149797
    23  C   -0.594550
    24  H    0.171957
    25  H    0.167483
    26  H    0.211499
    27  C   -0.596999
    28  H    0.170430
    29  H    0.170305
    30  H    0.189148
    31  S    0.082543
 Sum of Mulliken charges =  -0.00000

 Dipole moment (field-independent basis, Debye):
    X=             -2.7912    Y=              2.8480    Z=             -1.7847  Tot=              4.3688
 Quadrupole moment (field-independent basis, Debye-Ang):
   XX=           -108.4162   YY=           -103.2417   ZZ=            -78.8138
   XY=             -0.4093   XZ=              1.7418   YZ=              0.7862

  Exact polarizability: 164.105  -5.827 110.919 -17.781   7.836 161.203
 Approx polarizability: 224.985  -5.069 172.688 -21.330  14.648 225.058

                      1                      2                      3
                      A                      A                      A
 Frequencies --     15.1643                24.7390                34.9139
 Red. masses --      6.2190                 3.1715                 5.1158
 Frc consts  --      0.0008                 0.0011                 0.0037
 IR Inten    --      0.0942                 0.6099                 0.5187

                      4                      5                      6
                      A                      A                      A
 Frequencies --     47.8833                57.5205                72.6601
 Red. masses --      4.0254                 8.0473                 3.0346
 Frc consts  --      0.0054                 0.0157                 0.0094
 IR Inten    --      1.7360                 0.5494                 4.1921

                      7                      8                      9
                      A                      A                      A
 Frequencies --     79.4576                96.1261               100.9169
 Red. masses --      3.6085                 2.8899                 4.5224
 Frc consts  --      0.0134                 0.0157                 0.0271
 IR Inten    --      3.4389                 9.9136                 2.8791

                     10                     11                     12
                      A                      A                      A
 Frequencies --    125.9541               152.8627               160.5719
 Red. masses --      4.9108                 1.1360                 1.3013
 Frc consts  --      0.0459                 0.0156                 0.0198
 IR Inten    --      1.2970                 0.7349                 0.9536

                     13                     14                     15
                      A                      A                      A
 Frequencies --    198.4236               207.0490               209.8540
 Red. masses --      3.0708                 1.0879                 1.2585
 Frc consts  --      0.0712                 0.0275                 0.0327
 IR Inten    --      0.2950                 1.4141                 2.4855

                     16                     17                     18
                      A                      A                      A
 Frequencies --    215.0210               275.5095               319.3552
 Red. masses --      1.7863                 2.4700                 3.1235
 Frc consts  --      0.0487                 0.1105                 0.1877
 IR Inten    --      5.8097                 3.1265                27.8104

                     19                     20                     21
                      A                      A                      A
 Frequencies --    347.5314               367.2326               368.2994
 Red. masses --      1.5339                 3.6932                 3.0052
 Frc consts  --      0.1092                 0.2934                 0.2402
 IR Inten    --     13.4106                36.3402                 2.4882

                     22                     23                     24
                      A                      A                      A
 Frequencies --    388.9322               499.3376               530.7343
 Red. masses --      3.3256                 5.9921                 3.3448
 Frc consts  --      0.2964                 0.8803                 0.5551
 IR Inten    --     16.9293                15.5878                18.1389

                     25                     26                     27
                      A                      A                      A
 Frequencies --    564.2700               608.7811               616.0240
 Red. masses --      3.0407                 2.2647                 2.2134
 Frc consts  --      0.5704                 0.4945                 0.4949
 IR Inten    --      8.4490                15.1932               149.6316

                     28                     29                     30
                      A                      A                      A
 Frequencies --    649.5690               684.4638               704.4834
 Red. masses --      1.5547                 5.1073                 2.8671
 Frc consts  --      0.3865                 1.4098                 0.8384
 IR Inten    --      6.1356                 2.4649                48.7288

                     31                     32                     33
                      A                      A                      A
 Frequencies --    708.2174               713.0106               735.0800
 Red. masses --      4.2795                 5.0431                 6.8019
 Frc consts  --      1.2647                 1.5106                 2.1655
 IR Inten    --     37.2206                79.9972                 0.2487

                     34                     35                     36
                      A                      A                      A
 Frequencies --    758.6136               770.7451               836.6489
 Red. masses --      6.3875                 2.2572                 4.5397
 Frc consts  --      2.1658                 0.7900                 1.8723
 IR Inten    --     14.5258               173.3928                42.2946

                     37                     38                     39
                      A                      A                      A
 Frequencies --    939.4640               975.1119               981.8652
 Red. masses --      1.1630                 1.9101                 1.9698
 Frc consts  --      0.6048                 1.0701                 1.1189
 IR Inten    --      0.5561                 6.9201                 3.2422

                     40                     41                     42
                      A                      A                      A
 Frequencies --    983.3404               986.6582               997.3652
 Red. masses --      1.2123                 1.1547                 1.7955
 Frc consts  --      0.6907                 0.6623                 1.0523
 IR Inten    --      3.2647                 0.5552                16.0194

                     43                     44                     45
                      A                      A                      A
 Frequencies --   1023.3426              1081.2358              1119.2095
 Red. masses --      1.2073                 1.3521                 1.5023
 Frc consts  --      0.7449                 0.9313                 1.1088
 IR Inten    --     19.1911                22.9611                57.8721

                     46                     47                     48
                      A                      A                      A
 Frequencies --   1160.7337              1166.4063              1220.0091
 Red. masses --      1.3090                 1.2256                 3.3542
 Frc consts  --      1.0391                 0.9824                 2.9415
 IR Inten    --      8.0903                 5.1100                44.0901

                     49                     50                     51
                      A                      A                      A
 Frequencies --   1237.7098              1275.2349              1306.3976
 Red. masses --      2.7681                 1.6363                 1.8065
 Frc consts  --      2.4984                 1.5678                 1.8166
 IR Inten    --     46.4671                52.3213                23.7127

                     52                     53                     54
                      A                      A                      A
 Frequencies --   1314.6702              1377.7280              1384.1439
 Red. masses --      2.0870                 1.1529                 1.1658
 Frc consts  --      2.1253                 1.2893                 1.3159
 IR Inten    --     79.8013                 3.8998                 0.4006

                     55                     56                     57
                      A                      A                      A
 Frequencies --   1404.8420              1436.4007              1441.3054
 Red. masses --      1.1587                 1.9973                 2.0075
 Frc consts  --      1.3473                 2.4280                 2.4571
 IR Inten    --     17.5222                85.7140                50.2268

                     58                     59                     60
                      A                      A                      A
 Frequencies --   1481.7119              1492.7669              1496.6177
 Red. masses --      1.6669                 1.6772                 1.0495
 Frc consts  --      2.1561                 2.2020                 1.3851
 IR Inten    --     71.9845                84.2668                 0.2269

                     61                     62                     63
                      A                      A                      A
 Frequencies --   1501.7528              1506.8775              1516.4904
 Red. masses --      1.0556                 1.0543                 1.0644
 Frc consts  --      1.4027                 1.4105                 1.4422
 IR Inten    --     14.8920                 2.4111                 4.0929

                     64                     65                     66
                      A                      A                      A
 Frequencies --   1521.5681              1529.6084              1531.9396
 Red. masses --      1.0613                 1.0791                 1.0512
 Frc consts  --      1.4477                 1.4876                 1.4536
 IR Inten    --      8.6608                 7.6948                 7.0991

                     67                     68                     69
                      A                      A                      A
 Frequencies --   1551.6884              1676.0418              1740.2337
 Red. masses --      1.0692                 1.2342                 4.6607
 Frc consts  --      1.5167                 2.0426                 8.3160
 IR Inten    --     35.1174                58.1081               292.4009

                     70                     71                     72
                      A                      A                      A
 Frequencies --   1781.0797              3038.9641              3048.4320
 Red. masses --      7.8265                 1.0530                 1.0320
 Frc consts  --     14.6280                 5.7296                 5.6505
 IR Inten    --    733.7765                53.6036                36.9956

                     73                     74                     75
                      A                      A                      A
 Frequencies --   3056.4178              3058.5314              3070.5566
 Red. masses --      1.0309                 1.0308                 1.0875
 Frc consts  --      5.6738                 5.6816                 6.0412
 IR Inten    --     33.7838                32.8275                30.2642

                     76                     77                     78
                      A                      A                      A
 Frequencies --   3122.2651              3137.5433              3139.3646
 Red. masses --      1.1073                 1.1044                 1.0847
 Frc consts  --      6.3598                 6.4054                 6.2988
 IR Inten    --     17.4221                21.2079                 9.7451

                     79                     80                     81
                      A                      A                      A
 Frequencies --   3140.9458              3149.8730              3159.8757
 Red. masses --      1.1042                 1.1017                 1.1068
 Frc consts  --      6.4183                 6.4405                 6.5113
 IR Inten    --      5.2550                 5.4969                 1.2394

                     82                     83                     84
                      A                      A                      A
 Frequencies --   3161.4952              3198.9137              3233.3444
 Red. masses --      1.1068                 1.1034                 1.0917
 Frc consts  --      6.5179                 6.6528                 6.7246
 IR Inten    --      2.9027                 6.8619                 5.7602

                     85                     86                     87
                      A                      A                      A
 Frequencies --   3527.9554              3612.2485              3632.6491
 Red. masses --      1.0499                 1.0762                 1.0954
 Frc consts  --      7.6990                 8.2735                 8.5166
 IR Inten    --     10.9295                21.1189                 9.9703

 - Thermochemistry -
 -------------------
 Temperature   298.150 Kelvin.  Pressure   1.00000 Atm.
 Atom     1 has atomic number  6 and mass  12.00000

 Molecular mass:   235.08131 amu.
 Principal axes and moments of inertia in atomic units:
                           1         2         3
     Eigenvalues --  2495.910497319.094148816.75919
           X            0.97918   0.00609   0.20289
           Y           -0.20288  -0.00203   0.97920
           Z           -0.00637   0.99998   0.00075
 This molecule is an asymmetric top.
 Rotational symmetry number  1.
 Warning -- assumption of classical behavior for rotation
           may cause significant error
 Rotational temperatures (Kelvin)      0.03470     0.01183     0.00982
 Rotational constants (GHZ):           0.72308     0.24658     0.20469
 Zero-point vibrational energy     675153.7 (Joules/Mol)
                                  161.36561 (Kcal/Mol)
 Warning -- explicit consideration of  27 degrees of freedom as
           vibrations may cause significant error
 Vibrational temperatures:     21.82    35.59    50.23    68.89    82.76
          (Kelvin)            104.54   114.32   138.30   145.20   181.22
                              219.94   231.03   285.49   297.90   301.93
                              309.37   396.40   459.48   500.02   528.37
                              529.90   559.59   718.43   763.61   811.86
                              875.90   886.32   934.58   984.79  1013.59
                             1018.97  1025.86  1057.61  1091.47  1108.93
                             1203.75  1351.68  1402.97  1412.68  1414.81
                             1419.58  1434.98  1472.36  1555.66  1610.29
                             1670.03  1678.20  1755.32  1780.79  1834.78
                             1879.61  1891.51  1982.24  1991.47  2021.25
                             2066.66  2073.71  2131.85  2147.76  2153.30
                             2160.68  2168.06  2181.89  2189.19  2200.76
                             2204.12  2232.53  2411.45  2503.81  2562.57
                             4372.39  4386.01  4397.50  4400.54  4417.84
                             4492.24  4514.22  4516.84  4519.11  4531.96
                             4546.35  4548.68  4602.52  4652.06  5075.93
                             5197.21  5226.57

 Zero-point correction=                           0.257152 (Hartree/Particle)
 Thermal correction to Energy=                    0.276068
 Thermal correction to Enthalpy=                  0.277012
 Thermal correction to Gibbs Free Energy=         0.206156
 Sum of electronic and zero-point Energies=          -1350.695694
 Sum of electronic and thermal Energies=             -1350.676778
 Sum of electronic and thermal Enthalpies=           -1350.675834
 Sum of electronic and thermal Free Energies=        -1350.746690

                     E (Thermal)             CV                S
                      KCal/Mol        Cal/Mol-Kelvin    Cal/Mol-Kelvin
 Total                  173.235             64.740            149.130
 Electronic               0.000              0.000              0.000
 Translational            0.889              2.981             42.266
 Rotational               0.889              2.981             33.443
 Vibrational            171.458             58.779             73.421
 Vibration     1          0.593              1.986              7.184
 Vibration     2          0.593              1.985              6.212
 Vibration     3          0.594              1.983              5.529
 Vibration     4          0.595              1.978              4.903
 Vibration     5          0.596              1.974              4.541
 Vibration     6          0.599              1.967              4.080
 Vibration     7          0.600              1.963              3.904
 Vibration     8          0.603              1.952              3.531
 Vibration     9          0.604              1.948              3.437
 Vibration    10          0.611              1.927              3.007
 Vibration    11          0.619              1.899              2.636
 Vibration    12          0.622              1.891              2.543
 Vibration    13          0.637              1.842              2.148
 Vibration    14          0.641              1.830              2.070
 Vibration    15          0.642              1.826              2.045
 Vibration    16          0.645              1.818              2.001
 Vibration    17          0.677              1.719              1.561
 Vibration    18          0.705              1.637              1.313
 Vibration    19          0.725              1.580              1.177
 Vibration    20          0.740              1.540              1.091
 Vibration    21          0.741              1.537              1.087
 Vibration    22          0.757              1.494              1.004
 Vibration    23          0.855              1.251              0.660
 Vibration    24          0.886              1.182              0.586
 Vibration    25          0.920              1.109              0.515
 Vibration    26          0.968              1.013              0.435
 Vibration    27          0.976              0.998              0.423

 Optimization completed.
    -- Stationary point found.
 Normal termination of Gaussian 09 at Fri Feb 12 12:30:37 2021.
