 Gaussian 09, Revision E.01,
 Gaussian 09:  EM64L-G09RevE.01 30-Nov-2015

 ----------------------------------------------------------------------
 # opt=(calcall,tight,ts,modredundant,noeigentest) freq apfd/6-31g(d) n
 osymm
 ----------------------------------------------------------------------

 -------------------
 Title Card Required
 -------------------
 Symbolic Z-matrix:
 Charge =  0 Multiplicity = 1

 SCF Done:  E(RAPFD) =  -1555.51242423     A.U. after   15 cycles
 SCF Done:  E(RAPFD) =  -1555.51242468     A.U. after    9 cycles
 SCF Done:  E(RAPFD) =  -1555.51242470     A.U. after    7 cycles
 SCF Done:  E(RAPFD) =  -1555.51242471     A.U. after    6 cycles
 SCF Done:  E(RAPFD) =  -1555.51242471     A.U. after    5 cycles
 SCF Done:  E(RAPFD) =  -1555.51242471     A.U. after    4 cycles
 SCF Done:  E(RAPFD) =  -1555.51242471     A.U. after    4 cycles
 Optimization completed on the basis of negligible forces.
    -- Stationary point found.
 ******    1 imaginary frequencies (negative Signs) ******
    1 imaginary frequencies ignored.
 Normal termination of Gaussian 09 at Thu Mar 25 03:39:02 2021.

 -------------------------------------------------------------------
 #N Geom=AllCheck Guess=TCheck SCRF=Check GenChk RAPFD/6-31G(d) Freq
 -------------------------------------------------------------------

 Structure from the checkpoint file:  "/localscratch/enas93.64619895.0/Gau-24770.chk"
 -------------------
 Title Card Required
 -------------------
 Charge =  0 Multiplicity = 1

                          Input orientation:
 ---------------------------------------------------------------------
 Center     Atomic      Atomic             Coordinates (Angstroms)
 Number     Number       Type             X           Y           Z
 ---------------------------------------------------------------------
      1          6           0       -0.839946    2.843967    1.218398
      2          6           0       -2.608278    1.245354    2.708992
      3          6           0       -2.651885    2.592991    2.819463
      4          7           0       -1.792677    3.368318    2.112047
      5          1           0       -3.277916    0.609652    3.275697
      6          1           0       -3.351965    3.112444    3.466007
      7          8           0       -0.112281    3.609974    0.599844
      8          7           0       -0.807209    1.481905    1.110533
      9          6           0       -1.620970    0.683454    1.819443
     10          7           0       -1.500747   -0.627274    1.698197
     11          1           0       -0.747072   -1.115481    1.134886
     12          1           0       -2.140308   -1.227158    2.196727
     13          1           0       -1.810373    4.376869    2.175982
     14         15           0       -0.205821   -2.543761   -0.914029
     15          8           0       -0.363907   -1.658152   -2.108752
     16          8           0        0.350880   -2.023007    0.401949
     17          8           0       -1.655564   -3.211093   -0.518849
     18          8           0        0.718633   -3.821942   -1.351342
     19          1           0       -2.174772   -3.275149   -1.333581
     20          1           0        1.009311   -4.269041   -0.543610
     21         16           0        2.108645    0.706377   -1.990310
     22          6           0        2.689902   -1.000589   -1.877479
     23          1           0        3.728428   -1.064435   -2.215462
     24          1           0        2.582127   -1.369699   -0.853797
     25          1           0        2.033154   -1.587090   -2.521394
     26          6           0        3.259365    1.532954   -0.865139
     27          1           0        2.917482    2.563678   -0.739072
     28          1           0        3.266236    1.039096    0.112295
     29          1           0        4.269412    1.536003   -1.284098
     30          6           0        0.353825    0.849629   -0.477152
     31          1           0        0.493357    1.915564   -0.568430
     32          1           0       -0.395183    0.324128   -1.061372
     33          1           0        0.935713    0.264117    0.218823
 ---------------------------------------------------------------------

 SCF Done:  E(RAPFD) =  -1555.51242471     A.U. after    1 cycles

 Alpha  occ. eigenvalues --  -88.99225 -77.23832 -19.17114 -19.16989 -19.16493
 Alpha  occ. eigenvalues --  -19.10893 -19.09387 -14.44553 -14.39081 -14.38907
 Alpha  occ. eigenvalues --  -10.35112 -10.32594 -10.30314 -10.25726 -10.24638
 Alpha  occ. eigenvalues --  -10.24257 -10.22550  -8.00747  -6.64502  -5.95441
 Alpha  occ. eigenvalues --   -5.95089  -5.94643  -4.79276  -4.79170  -4.78986
 Alpha  occ. eigenvalues --   -1.08571  -1.04565  -1.00903  -0.99441  -0.98153
 Alpha  occ. eigenvalues --   -0.93894  -0.91059  -0.90356  -0.83805  -0.81771
 Alpha  occ. eigenvalues --   -0.72789  -0.71956  -0.68916  -0.68436  -0.61893
 Alpha  occ. eigenvalues --   -0.59912  -0.58825  -0.56442  -0.55425  -0.51329
 Alpha  occ. eigenvalues --   -0.50886  -0.48713  -0.47238  -0.46874  -0.46563
 Alpha  occ. eigenvalues --   -0.46250  -0.44887  -0.44055  -0.43096  -0.42846
 Alpha  occ. eigenvalues --   -0.42062  -0.41273  -0.40378  -0.39818  -0.38800
 Alpha  occ. eigenvalues --   -0.37785  -0.37666  -0.36064  -0.33168  -0.32575
 Alpha  occ. eigenvalues --   -0.32244  -0.30009  -0.29061  -0.27777  -0.27023
 Alpha  occ. eigenvalues --   -0.25971  -0.25897  -0.24760  -0.24395  -0.23329
 Alpha virt. eigenvalues --   -0.04598  -0.00378   0.00725   0.04260   0.06224
 Alpha virt. eigenvalues --    0.07935   0.08984   0.10303   0.11150   0.11860
 Alpha virt. eigenvalues --    0.12866   0.13249   0.13882   0.14110   0.16085

 Mulliken charges:
               1
     1  C    0.806136
     2  C   -0.286478
     3  C    0.113995
     4  N   -0.683776
     5  H    0.192753
     6  H    0.214239
     7  O   -0.543216
     8  N   -0.657553
     9  C    0.635950
    10  N   -0.847621
    11  H    0.475360
    12  H    0.364413
    13  H    0.377387
    14  P    1.148231
    15  O   -0.665682
    16  O   -0.729904
    17  O   -0.694648
    18  O   -0.683878
    19  H    0.430007
    20  H    0.427067
    21  S    0.271196
    22  C   -0.690895
    23  H    0.200291
    24  H    0.233759
    25  H    0.279767
    26  C   -0.680785
    27  H    0.235899
    28  H    0.216643
    29  H    0.218035
    30  C   -0.472181
    31  H    0.252940
    32  H    0.287210
    33  H    0.255343
 Sum of Mulliken charges =  -0.00000

 Dipole moment (field-independent basis, Debye):
    X=             -1.5602    Y=              4.4672    Z=              6.0845  Tot=              7.7079
 Quadrupole moment (field-independent basis, Debye-Ang):
   XX=            -86.0426   YY=           -111.4989   ZZ=           -109.1253
   XY=             -8.5172   XZ=            -16.5889   YZ=              5.7332

  Exact polarizability: 160.838  -4.823 177.626 -55.193  18.874 140.010
 Approx polarizability: 214.899   3.461 267.026 -64.557   7.408 205.807

 ******    1 imaginary frequencies (negative Signs) ******

                      1                      2                      3
                      A                      A                      A
 Frequencies --   -479.9709                15.8343                28.8742
 Red. masses --      9.7281                 5.5449                 6.3831
 Frc consts  --      1.3204                 0.0008                 0.0031
 IR Inten    --    916.6723                 1.7570                 7.6089

                      4                      5                      6
                      A                      A                      A
 Frequencies --     38.3982                48.9764                75.6987
 Red. masses --      4.9400                 5.8964                 4.6806
 Frc consts  --      0.0043                 0.0083                 0.0158
 IR Inten    --      1.7114                 3.2851                 3.1590

                      7                      8                      9
                      A                      A                      A
 Frequencies --     81.4801               101.3630               101.5460
 Red. masses --      5.8665                 8.1934                 4.8868
 Frc consts  --      0.0229                 0.0496                 0.0297
 IR Inten    --      2.9198                 1.7079                 9.5529

                     10                     11                     12
                      A                      A                      A
 Frequencies --    121.7387               142.4041               159.7888
 Red. masses --      6.7191                 1.3640                 5.0125
 Frc consts  --      0.0587                 0.0163                 0.0754
 IR Inten    --      2.5128                 2.6415                 0.3982

                     13                     14                     15
                      A                      A                      A
 Frequencies --    167.3205               177.9164               187.5672
 Red. masses --      3.4051                 3.2846                 4.4912
 Frc consts  --      0.0562                 0.0613                 0.0931
 IR Inten    --      8.8930                 0.5716                15.6314

                     16                     17                     18
                      A                      A                      A
 Frequencies --    212.3839               242.7149               248.9906
 Red. masses --      3.9874                 1.1623                 1.5390
 Frc consts  --      0.1060                 0.0403                 0.0562
 IR Inten    --     16.5056                16.8444               104.3263

                     19                     20                     21
                      A                      A                      A
 Frequencies --    258.5288               285.0674               316.5524
 Red. masses --      1.4178                 1.6909                 1.5515
 Frc consts  --      0.0558                 0.0810                 0.0916
 IR Inten    --     28.3610                 0.6916                17.0923

                     22                     23                     24
                      A                      A                      A
 Frequencies --    317.1395               341.3123               387.5093
 Red. masses --      2.3033                 6.6720                 3.5657
 Frc consts  --      0.1365                 0.4579                 0.3155
 IR Inten    --     16.0348                18.5142                19.3259

                     25                     26                     27
                      A                      A                      A
 Frequencies --    408.3262               421.8453               434.1891
 Red. masses --      3.3102                 3.5458                 3.2528
 Frc consts  --      0.3252                 0.3718                 0.3613
 IR Inten    --      5.6383                 4.2085                 4.9449

                     28                     29                     30
                      A                      A                      A
 Frequencies --    453.5343               500.9571               516.2628
 Red. masses --      4.5230                 9.0987                 9.5842
 Frc consts  --      0.5481                 1.3453                 1.5050
 IR Inten    --     23.0495               140.4982                66.0534

                     31                     32                     33
                      A                      A                      A
 Frequencies --    542.4203               552.4431               559.7641
 Red. masses --      1.2447                 4.3656                 5.1596
 Frc consts  --      0.2158                 0.7850                 0.9525
 IR Inten    --     93.8762                81.8758                 1.2588

                     34                     35                     36
                      A                      A                      A
 Frequencies --    595.8667               611.7708               700.6809
 Red. masses --      6.5396                 1.2005                 4.8429
 Frc consts  --      1.3680                 0.2647                 1.4009
 IR Inten    --     22.6004                34.4043                 2.1840

                     37                     38                     39
                      A                      A                      A
 Frequencies --    728.1957               755.5623               769.9846
 Red. masses --      2.0028                 6.1164                 8.2668
 Frc consts  --      0.6257                 2.0572                 2.8877
 IR Inten    --     34.4188                 0.1392                67.0425

                     40                     41                     42
                      A                      A                      A
 Frequencies --    778.8266               786.0030               818.0135
 Red. masses --      2.3600                 6.9014                12.6553
 Frc consts  --      0.8434                 2.5121                 4.9894
 IR Inten    --     21.6188                18.9465               109.5788

                     43                     44                     45
                      A                      A                      A
 Frequencies --    879.0233               933.6827               964.1696
 Red. masses --     11.3772                 1.1807                 1.4179
 Frc consts  --      5.1795                 0.6064                 0.7766
 IR Inten    --    246.3285                 1.9056                11.8927

                     46                     47                     48
                      A                      A                      A
 Frequencies --    968.3076               977.1337              1002.4002
 Red. masses --      2.4825                 1.2067                 1.4152
 Frc consts  --      1.3714                 0.6788                 0.8378
 IR Inten    --     32.0652                 5.7510                31.5295

                     49                     50                     51
                      A                      A                      A
 Frequencies --   1009.1389              1024.2298              1053.4529
 Red. masses --      1.4127                 1.6766                 1.1389
 Frc consts  --      0.8476                 1.0363                 0.7446
 IR Inten    --     42.0895                24.8146               108.8126

                     52                     53                     54
                      A                      A                      A
 Frequencies --   1061.3032              1076.1479              1077.6362
 Red. masses --      1.1444                 1.4677                 1.4417
 Frc consts  --      0.7595                 1.0014                 0.9864
 IR Inten    --    146.5628               118.8479                39.0014

                     55                     56                     57
                      A                      A                      A
 Frequencies --   1106.2824              1139.4011              1149.6250
 Red. masses --      3.4261                 1.9063                 1.4517
 Frc consts  --      2.4705                 1.4581                 1.1304
 IR Inten    --    339.2601               100.5100                41.2211

                     58                     59                     60
                      A                      A                      A
 Frequencies --   1187.5540              1250.6597              1267.3991
 Red. masses --      1.0952                 1.1744                 1.1791
 Frc consts  --      0.9100                 1.0823                 1.1159
 IR Inten    --     31.3412                52.0781                 8.5665

                     61                     62                     63
                      A                      A                      A
 Frequencies --   1296.5235              1339.9145              1376.1359
 Red. masses --      5.3132                 4.7526                 1.1874
 Frc consts  --      5.2622                 5.0273                 1.3249
 IR Inten    --    235.0905                92.1932                 5.8981

                     64                     65                     66
                      A                      A                      A
 Frequencies --   1387.6317              1404.2769              1405.8276
 Red. masses --      1.1301                 1.5177                 1.1737
 Frc consts  --      1.2821                 1.7634                 1.3667
 IR Inten    --      6.0477                 5.3537                 0.8139

                     67                     68                     69
                      A                      A                      A
 Frequencies --   1431.2274              1465.1483              1482.5799
 Red. masses --      1.1015                 2.5134                 1.0547
 Frc consts  --      1.3294                 3.1789                 1.3659
 IR Inten    --     12.0631                61.7339                 7.6781

                     70                     71                     72
                      A                      A                      A
 Frequencies --   1488.9907              1504.0354              1506.7327
 Red. masses --      1.0542                 1.0470                 1.0525
 Frc consts  --      1.3770                 1.3955                 1.4079
 IR Inten    --      2.1995                11.8207                58.3591

                     73                     74                     75
                      A                      A                      A
 Frequencies --   1576.1509              1605.1451              1717.7166
 Red. masses --      4.8039                 3.1332                 2.1054
 Frc consts  --      7.0313                 4.7563                 3.6600
 IR Inten    --    156.9699               115.9343                22.8625

                     76                     77                     78
                      A                      A                      A
 Frequencies --   1744.0552              1809.3010              2801.3925
 Red. masses --      2.3715                 8.1034                 1.0996
 Frc consts  --      4.2500                15.6293                 5.0843
 IR Inten    --    728.9138               370.4919              2126.4929

                     79                     80                     81
                      A                      A                      A
 Frequencies --   3073.0249              3076.9695              3153.7637
 Red. masses --      1.0326                 1.0312                 1.0096
 Frc consts  --      5.7452                 5.7520                 5.9164
 IR Inten    --     24.0112                 6.2211                17.6765

                     82                     83                     84
                      A                      A                      A
 Frequencies --   3170.0704              3173.6650              3183.2134
 Red. masses --      1.1061                 1.1083                 1.1064
 Frc consts  --      6.5489                 6.5770                 6.6053
 IR Inten    --      4.9433                 0.9206                 1.8784

                     85                     86                     87
                      A                      A                      A
 Frequencies --   3212.2987              3243.4282              3264.4869
 Red. masses --      1.1037                 1.0904                 1.0987
 Frc consts  --      6.7099                 6.7582                 6.8986
 IR Inten    --      8.1107                 1.9092                 2.8265

                     88                     89                     90
                      A                      A                      A
 Frequencies --   3350.7620              3381.7119              3650.7136
 Red. masses --      1.1241                 1.1254                 1.0791
 Frc consts  --      7.4359                 7.5830                 8.4734
 IR Inten    --     46.3139                17.1610               103.4484

                     91                     92                     93
                      A                      A                      A
 Frequencies --   3692.3800              3808.6922              3811.4534
 Red. masses --      1.0789                 1.0651                 1.0653
 Frc consts  --      8.6667                 9.1032                 9.1179
 IR Inten    --     61.4279                81.0821                38.2995

 - Thermochemistry -
 -------------------
 Temperature   298.150 Kelvin.  Pressure   1.00000 Atm.
 Atom     1 has atomic number  6 and mass  12.00000

 Molecular mass:   285.05483 amu.
 Principal axes and moments of inertia in atomic units:
                           1         2         3
     Eigenvalues --  3906.228307163.75802**********
           X           -0.37696   0.70937   0.59556
           Y            0.75591   0.60719  -0.24478
           Z            0.53526  -0.35792   0.76511
 This molecule is an asymmetric top.
 Rotational symmetry number  1.
 Warning -- assumption of classical behavior for rotation
           may cause significant error
 Rotational temperatures (Kelvin)      0.02217     0.01209     0.00838
 Rotational constants (GHZ):           0.46202     0.25193     0.17453
    1 imaginary frequencies ignored.
 Zero-point vibrational energy     674159.8 (Joules/Mol)
                                  161.12806 (Kcal/Mol)
 Warning -- explicit consideration of  34 degrees of freedom as
           vibrations may cause significant error
 Vibrational temperatures:     22.78    41.54    55.25    70.47   108.91
          (Kelvin)            117.23   145.84   146.10   175.15   204.89
                              229.90   240.74   255.98   269.87   305.57
                              349.21   358.24   371.96   410.15   455.45
                              456.29   491.07   557.54   587.49   606.94
                              624.70   652.53   720.76   742.79   780.42
                              794.84   805.37   857.32   880.20  1008.12
                             1047.71  1087.08  1107.83  1120.56  1130.88
                             1176.94  1264.72  1343.36  1387.22  1393.18
                             1405.88  1442.23  1451.92  1473.64  1515.68
                             1526.98  1548.33  1550.48  1591.69  1639.34
                             1654.05  1708.62  1799.42  1823.50  1865.41
                             1927.84  1979.95  1996.49  2020.44  2022.67
                             2059.21  2108.02  2133.10  2142.32  2163.97
                             2167.85  2267.73  2309.44  2471.41  2509.30
                             2603.18  4030.57  4421.39  4427.07  4537.56
                             4561.02  4566.19  4579.93  4621.78  4666.56
                             4696.86  4820.99  4865.52  5252.56  5312.50
                             5479.85  5483.82

 Zero-point correction=                           0.256774 (Hartree/Particle)
 Thermal correction to Energy=                    0.277543
 Thermal correction to Enthalpy=                  0.278487
 Thermal correction to Gibbs Free Energy=         0.205126
 Sum of electronic and zero-point Energies=          -1555.255651
 Sum of electronic and thermal Energies=             -1555.234882
 Sum of electronic and thermal Enthalpies=           -1555.233938
 Sum of electronic and thermal Free Energies=        -1555.307299

                     E (Thermal)             CV                S
                      KCal/Mol        Cal/Mol-Kelvin    Cal/Mol-Kelvin
 Total                  174.161             74.059            154.401
 Electronic               0.000              0.000              0.000
 Translational            0.889              2.981             42.840
 Rotational               0.889              2.981             34.025
 Vibrational            172.383             68.097             77.536
 Vibration     1          0.593              1.986              7.098
 Vibration     2          0.593              1.984              5.905
 Vibration     3          0.594              1.982              5.340
 Vibration     4          0.595              1.978              4.858
 Vibration     5          0.599              1.965              3.999
 Vibration     6          0.600              1.962              3.855
 Vibration     7          0.604              1.948              3.428
 Vibration     8          0.604              1.948              3.424
 Vibration     9          0.609              1.931              3.073
 Vibration    10          0.616              1.911              2.771
 Vibration    11          0.622              1.892              2.552
 Vibration    12          0.624              1.883              2.465
 Vibration    13          0.628              1.870              2.350
 Vibration    14          0.632              1.857              2.252
 Vibration    15          0.643              1.822              2.023
 Vibration    16          0.659              1.775              1.783
 Vibration    17          0.662              1.764              1.738
 Vibration    18          0.667              1.748              1.672
 Vibration    19          0.683              1.701              1.503
 Vibration    20          0.703              1.642              1.328
 Vibration    21          0.704              1.641              1.325
 Vibration    22          0.721              1.593              1.206
 Vibration    23          0.756              1.497              1.010
 Vibration    24          0.773              1.452              0.933
 Vibration    25          0.784              1.423              0.886
 Vibration    26          0.795              1.396              0.845
 Vibration    27          0.812              1.353              0.785
 Vibration    28          0.856              1.248              0.656
 Vibration    29          0.871              1.214              0.619
 Vibration    30          0.898              1.156              0.560
 Vibration    31          0.908              1.134              0.539
 Vibration    32          0.915              1.118              0.524
 Vibration    33          0.954              1.041              0.457
 Vibration    34          0.971              1.007              0.430

 Normal termination of Gaussian 09 at Thu Mar 25 03:42:33 2021.
