 Gaussian 09, Revision E.01,
 Gaussian 09:  EM64L-G09RevE.01 30-Nov-2015

 ----------------------------------------------------------------------
 # opt=(calcall,tight,ts,modredundant,noeigentest) freq b3lyp/6-31g(d)
 nosymm
 ----------------------------------------------------------------------

 -------------------
 Title Card Required
 -------------------
 Symbolic Z-matrix:
 Charge =  0 Multiplicity = 1

 SCF Done:  E(RB3LYP) =  -1500.94876153     A.U. after   15 cycles
 SCF Done:  E(RB3LYP) =  -1500.95229578     A.U. after   13 cycles
 SCF Done:  E(RB3LYP) =  -1500.95284673     A.U. after   12 cycles
 SCF Done:  E(RB3LYP) =  -1500.95306057     A.U. after   12 cycles
 SCF Done:  E(RB3LYP) =  -1500.95311611     A.U. after   12 cycles
 SCF Done:  E(RB3LYP) =  -1500.95313974     A.U. after   12 cycles
 SCF Done:  E(RB3LYP) =  -1500.95313770     A.U. after   13 cycles
 SCF Done:  E(RB3LYP) =  -1500.95317082     A.U. after   15 cycles
 SCF Done:  E(RB3LYP) =  -1500.95250796     A.U. after   15 cycles
 SCF Done:  E(RB3LYP) =  -1500.95308332     A.U. after   15 cycles
 SCF Done:  E(RB3LYP) =  -1500.95194807     A.U. after   15 cycles
 SCF Done:  E(RB3LYP) =  -1500.95192949     A.U. after   15 cycles
 SCF Done:  E(RB3LYP) =  -1500.95320626     A.U. after   13 cycles
 SCF Done:  E(RB3LYP) =  -1500.95361912     A.U. after   13 cycles
 SCF Done:  E(RB3LYP) =  -1500.95361737     A.U. after   12 cycles
 SCF Done:  E(RB3LYP) =  -1500.95364690     A.U. after   11 cycles
 SCF Done:  E(RB3LYP) =  -1500.95364806     A.U. after   10 cycles
 SCF Done:  E(RB3LYP) =  -1500.95364809     A.U. after    7 cycles
 SCF Done:  E(RB3LYP) =  -1500.95364809     A.U. after    4 cycles
 Optimization completed on the basis of negligible forces.
    -- Stationary point found.
 ******    1 imaginary frequencies (negative Signs) ******
    1 imaginary frequencies ignored.
 Normal termination of Gaussian 09 at Fri Apr  9 05:22:48 2021.

 --------------------------------------------------------------------
 #N Geom=AllCheck Guess=TCheck SCRF=Check GenChk RB3LYP/6-31G(d) Freq
 --------------------------------------------------------------------

 Structure from the checkpoint file:  "/localscratch/enas93.66158452.0/Gau-196629.chk"
 -------------------
 Title Card Required
 -------------------
 Charge =  0 Multiplicity = 1

                          Input orientation:
 ---------------------------------------------------------------------
 Center     Atomic      Atomic             Coordinates (Angstroms)
 Number     Number       Type             X           Y           Z
 ---------------------------------------------------------------------
      1          6           0       -2.098916   -4.019940   -0.107109
      2          8           0       -2.114035   -3.335183    0.950860
      3          8           0       -2.880426   -5.162863   -0.115747
      4          8           0       -1.472006   -3.806917   -1.175295
      5          1           0       -3.292839   -5.174456    0.763569
      6          6           0        1.532880    0.455141   -0.217707
      7          6           0        3.115023   -1.749542   -0.925402
      8          6           0        3.691565   -0.562252   -0.610528
      9          7           0        2.933055    0.508507   -0.255934
     10          1           0        3.707875   -2.611288   -1.205726
     11          1           0        4.764331   -0.400932   -0.621773
     12          8           0        0.888792    1.464913    0.091992
     13          7           0        0.952108   -0.738380   -0.532496
     14          6           0        1.674646   -1.821293   -0.871076
     15          7           0        1.033160   -2.947885   -1.161736
     16          1           0       -0.015803   -3.092761   -1.093011
     17          1           0        1.574014   -3.767973   -1.396577
     18          1           0        3.369004    1.408628   -0.044045
     19         16           0       -3.430320   -0.784138   -0.087662
     20          6           0       -3.831818    0.954140   -0.478811
     21          1           0       -4.843349    1.190866   -0.137933
     22          1           0       -3.114193    1.638231   -0.015762
     23          1           0       -3.788414    1.065080   -1.565214
     24          6           0       -3.495141   -0.738272    1.731785
     25          1           0       -2.788288   -0.000211    2.122390
     26          1           0       -4.511031   -0.501018    2.058394
     27          1           0       -3.207795   -1.745207    2.040519
     28          6           0       -1.173085   -0.789171   -0.361900
     29          1           0       -1.113374   -1.631830    0.319739
     30          1           0       -1.228100   -1.003110   -1.418757
     31          1           0       -1.045637    0.233504   -0.034704
     32          7           0        2.141735    3.707661    1.751557
     33          1           0        2.821662    3.179070    2.296541
     34          6           0        2.824863    4.714911    0.970650
     35          1           0        2.075521    5.210532    0.334881
     36          6           0        3.445583    5.774000    1.905631
     37          6           0        3.910380    4.166628    0.020856
     38          1           0        4.216502    5.318721    2.538128
     39          1           0        3.908574    6.607544    1.364573
     40          1           0        2.661529    6.171197    2.554494
     41          8           0        4.314061    3.022020    0.018468
     42          8           0        4.454023    5.048890   -0.849241
     43          1           0        1.660183    3.032142    1.151670
     44          1           0        4.039585    5.921458   -0.740064
 ---------------------------------------------------------------------

 SCF Done:  E(RB3LYP) =  -1500.95364809     A.U. after    1 cycles

 Alpha  occ. eigenvalues --  -88.91811 -19.21881 -19.16259 -19.11641 -19.11472
 Alpha  occ. eigenvalues --  -19.05310 -19.05280 -14.38840 -14.34594 -14.33871
 Alpha  occ. eigenvalues --  -14.31385 -10.33867 -10.31867 -10.29026 -10.27257
 Alpha  occ. eigenvalues --  -10.26382 -10.24899 -10.23218 -10.22973 -10.21538
 Alpha  occ. eigenvalues --  -10.20592 -10.20559  -7.97760  -5.94180  -5.93843
 Alpha  occ. eigenvalues --   -5.93395  -1.12369  -1.05174  -1.04115  -1.03597
 Alpha  occ. eigenvalues --   -0.97583  -0.94720  -0.93434  -0.90463  -0.89712
 Alpha  occ. eigenvalues --   -0.87566  -0.82766  -0.78717  -0.76105  -0.72235
 Alpha  occ. eigenvalues --   -0.70270  -0.67023  -0.66486  -0.65780  -0.62847
 Alpha  occ. eigenvalues --   -0.61616  -0.57220  -0.56319  -0.54410  -0.53763
 Alpha  occ. eigenvalues --   -0.52502  -0.50876  -0.48541  -0.48124  -0.46493
 Alpha  occ. eigenvalues --   -0.46409  -0.46205  -0.45951  -0.45317  -0.44821
 Alpha  occ. eigenvalues --   -0.44618  -0.43893  -0.43104  -0.42906  -0.42309
 Alpha  occ. eigenvalues --   -0.41902  -0.41722  -0.41289  -0.39958  -0.39430
 Alpha  occ. eigenvalues --   -0.38557  -0.38178  -0.38066  -0.37615  -0.37146
 Alpha  occ. eigenvalues --   -0.35338  -0.35213  -0.34013  -0.33235  -0.31616
 Alpha  occ. eigenvalues --   -0.29990  -0.27680  -0.25360  -0.24909  -0.24739
 Alpha  occ. eigenvalues --   -0.24299  -0.23959  -0.23100  -0.21398  -0.19405
 Alpha virt. eigenvalues --   -0.03396  -0.01564  -0.00675   0.01262   0.02929
 Alpha virt. eigenvalues --    0.03160   0.06746   0.07762   0.08250   0.09519
 Alpha virt. eigenvalues --    0.10617   0.11800   0.11944   0.12468   0.12834

 Mulliken charges:
               1
     1  C    0.708903
     2  O   -0.613960
     3  O   -0.594449
     4  O   -0.612519
     5  H    0.380462
     6  C    0.756721
     7  C   -0.232027
     8  C    0.115600
     9  N   -0.661155
    10  H    0.148727
    11  H    0.182634
    12  O   -0.563778
    13  N   -0.607873
    14  C    0.606214
    15  N   -0.809310
    16  H    0.443830
    17  H    0.336909
    18  H    0.402262
    19  S    0.309572
    20  C   -0.604874
    21  H    0.192641
    22  H    0.196705
    23  H    0.198584
    24  C   -0.606297
    25  H    0.184314
    26  H    0.180954
    27  H    0.263825
    28  C   -0.434445
    29  H    0.276003
    30  H    0.224995
    31  H    0.221887
    32  N   -0.730953
    33  H    0.294590
    34  C   -0.098544
    35  H    0.157824
    36  C   -0.446197
    37  C    0.599409
    38  H    0.162888
    39  H    0.131848
    40  H    0.186057
    41  O   -0.473575
    42  O   -0.551979
    43  H    0.358119
    44  H    0.419460
 Sum of Mulliken charges =   0.00000

 Dipole moment (field-independent basis, Debye):
    X=              3.3383    Y=              8.7229    Z=              0.9484  Tot=              9.3879
 Quadrupole moment (field-independent basis, Debye-Ang):
   XX=           -114.5686   YY=           -134.6682   ZZ=           -138.7303
   XY=            -14.9597   XZ=             -5.2317   YZ=             -6.3159

  Exact polarizability: 240.380  16.460 231.334 -19.664  16.680 135.278
 Approx polarizability: 322.382   8.418 331.691 -22.132  26.343 211.267

 ******    1 imaginary frequencies (negative Signs) ******

                      1                      2                      3
                      A                      A                      A
 Frequencies --   -433.5923                 5.7378                17.9486
 Red. masses --     10.6889                 5.4971                 6.4726
 Frc consts  --      1.1840                 0.0001                 0.0012
 IR Inten    --    894.5939                 0.5436                 0.8928

                      4                      5                      6
                      A                      A                      A
 Frequencies --     23.8617                24.9400                39.8501
 Red. masses --      5.4354                 5.9225                 4.8711
 Frc consts  --      0.0018                 0.0022                 0.0046
 IR Inten    --      2.6745                 2.6535                 3.6856

                      7                      8                      9
                      A                      A                      A
 Frequencies --     42.7659                53.1922                60.2381
 Red. masses --      5.2066                 6.6713                 3.7987
 Frc consts  --      0.0056                 0.0111                 0.0081
 IR Inten    --      4.9191                 6.1858                 3.9378

                     10                     11                     12
                      A                      A                      A
 Frequencies --     64.3616                66.2897                82.9875
 Red. masses --      6.8007                 5.6395                 6.2390
 Frc consts  --      0.0166                 0.0146                 0.0253
 IR Inten    --      4.3047                 1.5603                 2.2521

                     13                     14                     15
                      A                      A                      A
 Frequencies --     93.2033               101.7663               121.9562
 Red. masses --      4.7352                 4.3222                 6.0394
 Frc consts  --      0.0242                 0.0264                 0.0529
 IR Inten    --      3.4255                 6.3043                 3.0426

                     16                     17                     18
                      A                      A                      A
 Frequencies --    128.2904               135.9027               141.9602
 Red. masses --      5.6268                 5.6034                 6.1697
 Frc consts  --      0.0546                 0.0610                 0.0733
 IR Inten    --      8.2376                10.7425                18.2848

                     19                     20                     21
                      A                      A                      A
 Frequencies --    174.6620               177.1236               192.9401
 Red. masses --      4.8641                 1.2090                 4.3063
 Frc consts  --      0.0874                 0.0223                 0.0944
 IR Inten    --      1.5976                 0.2080                25.9377

                     22                     23                     24
                      A                      A                      A
 Frequencies --    199.2523               213.3989               216.7129
 Red. masses --      4.3149                 5.8542                 1.1984
 Frc consts  --      0.1009                 0.1571                 0.0332
 IR Inten    --      1.5213                73.9665                 6.3557

                     25                     26                     27
                      A                      A                      A
 Frequencies --    230.1566               245.2833               259.2972
 Red. masses --      1.1561                 1.1646                 3.3206
 Frc consts  --      0.0361                 0.0413                 0.1315
 IR Inten    --      1.5910                 4.3603                15.3032

                     28                     29                     30
                      A                      A                      A
 Frequencies --    273.9164               296.7328               316.8050
 Red. masses --      2.4914                 2.6282                 3.8097
 Frc consts  --      0.1101                 0.1363                 0.2253
 IR Inten    --      3.8159                32.4138                 5.0612

                     31                     32                     33
                      A                      A                      A
 Frequencies --    363.2821               382.8948               424.6714
 Red. masses --      3.6183                 1.8020                 3.3057
 Frc consts  --      0.2814                 0.1557                 0.3512
 IR Inten    --     24.0618                 3.0717                 0.1181

                     34                     35                     36
                      A                      A                      A
 Frequencies --    427.8810               441.1981               497.5981
 Red. masses --      4.3966                 1.7046                 2.9186
 Frc consts  --      0.4743                 0.1955                 0.4258
 IR Inten    --      9.4350                33.1925                 1.0576

                     37                     38                     39
                      A                      A                      A
 Frequencies --    533.2301               537.2087               549.3561
 Red. masses --      1.1904                 1.1508                 5.9294
 Frc consts  --      0.1994                 0.1957                 1.0543
 IR Inten    --     80.7163                90.8333                37.2203

                     40                     41                     42
                      A                      A                      A
 Frequencies --    570.3696               582.4120               582.9411
 Red. masses --      4.6017                 3.7113                 1.2109
 Frc consts  --      0.8820                 0.7417                 0.2424
 IR Inten    --     13.0920                 8.4432                92.6169

                     43                     44                     45
                      A                      A                      A
 Frequencies --    597.4503               634.8929               664.2987
 Red. masses --      8.4453                 4.4830                11.7837
 Frc consts  --      1.7761                 1.0647                 3.0638
 IR Inten    --     11.6895                 9.1739                19.6319

                     46                     47                     48
                      A                      A                      A
 Frequencies --    681.3171               711.5845               732.8819
 Red. masses --      5.1729                 2.2361                 6.5772
 Frc consts  --      1.4148                 0.6671                 2.0814
 IR Inten    --      3.4333                 0.4361                 1.2259

                     49                     50                     51
                      A                      A                      A
 Frequencies --    734.6940               762.4922               775.6791
 Red. masses --      4.2480                10.3545                 1.8111
 Frc consts  --      1.3510                 3.5469                 0.6420
 IR Inten    --      4.4314                38.3387                44.6293

                     52                     53                     54
                      A                      A                      A
 Frequencies --    787.9199               798.2388               803.4129
 Red. masses --      6.7853                 1.4297                 2.3476
 Frc consts  --      2.4819                 0.5367                 0.8928
 IR Inten    --     18.7448                62.8885                19.6950

                     55                     56                     57
                      A                      A                      A
 Frequencies --    816.2813               926.1884               943.6093
 Red. masses --     11.0298                 2.2785                 1.1749
 Frc consts  --      4.3301                 1.1516                 0.6164
 IR Inten    --     32.0870                10.4496                 2.0844

                     58                     59                     60
                      A                      A                      A
 Frequencies --    952.6507               965.8133               968.2499
 Red. masses --      1.4160                 2.5272                 1.2996
 Frc consts  --      0.7572                 1.3889                 0.7178
 IR Inten    --     77.9234               178.8728                 1.4000

                     61                     62                     63
                      A                      A                      A
 Frequencies --    979.6389               988.0322              1004.7710
 Red. masses --      1.1994                 3.4404                 2.7518
 Frc consts  --      0.6782                 1.9788                 1.6368
 IR Inten    --      3.2082                62.5937                 3.0487

                     64                     65                     66
                      A                      A                      A
 Frequencies --   1012.3140              1041.6099              1044.6110
 Red. masses --      1.2894                 1.5454                 1.4307
 Frc consts  --      0.7785                 0.9878                 0.9198
 IR Inten    --      8.6766                 2.1656                56.3802

                     67                     68                     69
                      A                      A                      A
 Frequencies --   1081.5754              1089.3146              1102.5677
 Red. masses --      1.3199                 1.5739                 1.0766
 Frc consts  --      0.9097                 1.1004                 0.7711
 IR Inten    --     29.1701                44.6765                 4.0791

                     70                     71                     72
                      A                      A                      A
 Frequencies --   1124.1007              1134.6112              1145.1741
 Red. masses --      1.5355                 1.2450                 1.3753
 Frc consts  --      1.1432                 0.9443                 1.0626
 IR Inten    --    140.5464                68.2856                15.0330

                     73                     74                     75
                      A                      A                      A
 Frequencies --   1173.6832              1199.7551              1201.2705
 Red. masses --      2.4583                 1.7523                 1.1204
 Frc consts  --      1.9952                 1.4861                 0.9526
 IR Inten    --     28.9833                 5.0489                65.9106

                     76                     77                     78
                      A                      A                      A
 Frequencies --   1247.3952              1260.8450              1292.0533
 Red. masses --      1.3295                 1.3604                 1.5199
 Frc consts  --      1.2188                 1.2742                 1.4949
 IR Inten    --    219.8545                74.3465               172.5620

                     79                     80                     81
                      A                      A                      A
 Frequencies --   1309.5218              1318.4249              1354.8508
 Red. masses --      1.4976                 6.8035                 2.0070
 Frc consts  --      1.5131                 6.9678                 2.1706
 IR Inten    --    125.6948                87.6157               167.9352

                     82                     83                     84
                      A                      A                      A
 Frequencies --   1367.8431              1397.4041              1399.7232
 Red. masses --      1.1924                 1.4774                 1.2825
 Frc consts  --      1.3144                 1.6998                 1.4804
 IR Inten    --     49.1003               201.3976                78.6843

                     85                     86                     87
                      A                      A                      A
 Frequencies --   1403.3800              1407.7041              1428.4690
 Red. masses --      2.1540                 1.7692                 1.2192
 Frc consts  --      2.4994                 2.0657                 1.4658
 IR Inten    --    156.7009               242.8894                 0.9067

                     88                     89                     90
                      A                      A                      A
 Frequencies --   1441.0281              1451.0890              1477.0024
 Red. masses --      1.3171                 1.1436                 2.5252
 Frc consts  --      1.6114                 1.4188                 3.2457
 IR Inten    --      1.8155                14.2235                81.1182

                     91                     92                     93
                      A                      A                      A
 Frequencies --   1491.9658              1497.3243              1506.7048
 Red. masses --      1.0603                 1.0513                 1.0492
 Frc consts  --      1.3906                 1.3887                 1.4034
 IR Inten    --     24.9021                 5.9044                 5.7987

                     94                     95                     96
                      A                      A                      A
 Frequencies --   1512.8740              1520.3086              1531.3713
 Red. masses --      1.0509                 1.0537                 1.0494
 Frc consts  --      1.4172                 1.4349                 1.4500
 IR Inten    --      5.8277                16.7398                12.4862

                     97                     98                     99
                      A                      A                      A
 Frequencies --   1568.3986              1580.6758              1694.2128
 Red. masses --      3.4778                 3.1358                 2.9523
 Frc consts  --      5.0405                 4.6161                 4.9929
 IR Inten    --     38.6960               145.5597               743.7310

                    100                    101                    102
                      A                      A                      A
 Frequencies --   1705.3062              1733.2018              1752.5315
 Red. masses --      2.3840                 1.2390                 3.7729
 Frc consts  --      4.0847                 2.1929                 6.8275
 IR Inten    --     28.0276               181.9361               429.4211

                    103                    104                    105
                      A                      A                      A
 Frequencies --   1770.0754              1838.5049              2796.4780
 Red. masses --      2.8497                 9.6644                 1.1029
 Frc consts  --      5.2605                19.2467                 5.0815
 IR Inten    --    481.8987               402.5843              2069.8573

                    106                    107                    108
                      A                      A                      A
 Frequencies --   3023.7665              3053.3036              3063.4982
 Red. masses --      1.0836                 1.0375                 1.0296
 Frc consts  --      5.8374                 5.6987                 5.6930
 IR Inten    --     17.6523                24.9503                33.9804

                    109                    110                    111
                      A                      A                      A
 Frequencies --   3065.7584              3113.2902              3115.4110
 Red. masses --      1.0304                 1.0135                 1.1020
 Frc consts  --      5.7062                 5.7881                 6.3018
 IR Inten    --      9.1118                59.1924                33.8669

                    112                    113                    114
                      A                      A                      A
 Frequencies --   3151.2184              3154.2925              3154.7434
 Red. masses --      1.1069                 1.1076                 1.1010
 Frc consts  --      6.4760                 6.4929                 6.4559
 IR Inten    --      7.5335                 1.3748                10.4264

                    115                    116                    117
                      A                      A                      A
 Frequencies --   3163.9749              3185.2704              3227.0044
 Red. masses --      1.1050                 1.1069                 1.0893
 Frc consts  --      6.5177                 6.6166                 6.6833
 IR Inten    --      3.2161                14.0208                 0.8144

                    118                    119                    120
                      A                      A                      A
 Frequencies --   3244.1543              3307.9530              3350.4677
 Red. masses --      1.0987                 1.1232                 1.1222
 Frc consts  --      6.8131                 7.2416                 7.4219
 IR Inten    --      5.5977                90.6328                 8.5891

                    121                    122                    123
                      A                      A                      A
 Frequencies --   3423.6977              3445.4541              3529.7010
 Red. masses --      1.0592                 1.0790                 1.0885
 Frc consts  --      7.3150                 7.5466                 7.9905
 IR Inten    --     30.3331              1232.5850                83.2695

                    124                    125                    126
                      A                      A                      A
 Frequencies --   3650.0363              3727.1915              3737.7656
 Red. masses --      1.0789                 1.0656                 1.0642
 Frc consts  --      8.4691                 8.7221                 8.7602
 IR Inten    --     49.1252                36.7721                19.8529

 - Thermochemistry -
 -------------------
 Temperature   298.150 Kelvin.  Pressure   1.00000 Atm.
 Atom     1 has atomic number  6 and mass  12.00000

 Molecular mass:   338.12601 amu.
 Principal axes and moments of inertia in atomic units:
                           1         2         3
     Eigenvalues --  4887.36851********************
           X            0.65937   0.72941   0.18221
           Y            0.74975  -0.61999  -0.23128
           Z            0.05572  -0.28911   0.95567
 This molecule is an asymmetric top.
 Rotational symmetry number  1.
 Warning -- assumption of classical behavior for rotation
           may cause significant error
 Rotational temperatures (Kelvin)      0.01772     0.00479     0.00400
 Rotational constants (GHZ):           0.36927     0.09988     0.08334
    1 imaginary frequencies ignored.
 Zero-point vibrational energy     929617.3 (Joules/Mol)
                                  222.18387 (Kcal/Mol)
 Warning -- explicit consideration of  42 degrees of freedom as
           vibrations may cause significant error
 Vibrational temperatures:      8.26    25.82    34.33    35.88    57.34
          (Kelvin)             61.53    76.53    86.67    92.60    95.38
                              119.40   134.10   146.42   175.47   184.58
                              195.53   204.25   251.30   254.84   277.60
                              286.68   307.03   311.80   331.14   352.91
                              373.07   394.10   426.93   455.81   522.68
                              550.90   611.01   615.62   634.78   715.93
                              767.20   772.92   790.40   820.63   837.96
                              838.72   859.60   913.47   955.78   980.26
                             1023.81  1054.45  1057.06  1097.05  1116.03
                             1133.64  1148.49  1155.93  1174.45  1332.58
                             1357.64  1370.65  1389.59  1393.09  1409.48
                             1421.56  1445.64  1456.49  1498.64  1502.96
                             1556.14  1567.28  1586.35  1617.33  1632.45
                             1647.65  1688.67  1726.18  1728.36  1794.72
                             1814.07  1858.97  1884.11  1896.92  1949.33
                             1968.02  2010.55  2013.89  2019.15  2025.37
                             2055.25  2073.32  2087.79  2125.07  2146.60
                             2154.31  2167.81  2176.69  2187.38  2203.30
                             2256.57  2274.24  2437.59  2453.55  2493.69
                             2521.50  2546.74  2645.20  4023.50  4350.52
                             4393.02  4407.69  4410.94  4479.32  4482.38
                             4533.89  4538.32  4538.97  4552.25  4582.89
                             4642.93  4667.61  4759.40  4820.57  4925.93
                             4957.23  5078.45  5251.58  5362.59  5377.80

 Zero-point correction=                           0.354073 (Hartree/Particle)
 Thermal correction to Energy=                    0.381587
 Thermal correction to Enthalpy=                  0.382531
 Thermal correction to Gibbs Free Energy=         0.289765
 Sum of electronic and zero-point Energies=          -1500.599576
 Sum of electronic and thermal Energies=             -1500.572061
 Sum of electronic and thermal Enthalpies=           -1500.571117
 Sum of electronic and thermal Free Energies=        -1500.663883

                     E (Thermal)             CV                S
                      KCal/Mol        Cal/Mol-Kelvin    Cal/Mol-Kelvin
 Total                  239.450             95.213            195.243
 Electronic               0.000              0.000              0.000
 Translational            0.889              2.981             43.349
 Rotational               0.889              2.981             35.901
 Vibrational            237.672             89.251            115.992
 Vibration     1          0.593              1.987              9.115
 Vibration     2          0.593              1.986              6.849
 Vibration     3          0.593              1.985              6.284
 Vibration     4          0.593              1.985              6.196
 Vibration     5          0.594              1.981              5.267
 Vibration     6          0.595              1.980              5.127
 Vibration     7          0.596              1.976              4.695
 Vibration     8          0.597              1.973              4.449
 Vibration     9          0.597              1.971              4.319
 Vibration    10          0.598              1.970              4.261
 Vibration    11          0.600              1.961              3.819
 Vibration    12          0.602              1.954              3.592
 Vibration    13          0.604              1.948              3.420
 Vibration    14          0.609              1.931              3.069
 Vibration    15          0.611              1.925              2.972
 Vibration    16          0.614              1.917              2.861
 Vibration    17          0.615              1.911              2.777
 Vibration    18          0.627              1.874              2.385
 Vibration    19          0.628              1.871              2.359
 Vibration    20          0.635              1.850              2.199
 Vibration    21          0.637              1.841              2.140
 Vibration    22          0.644              1.821              2.014
 Vibration    23          0.646              1.816              1.986
 Vibration    24          0.652              1.795              1.878
 Vibration    25          0.660              1.771              1.764
 Vibration    26          0.668              1.747              1.667
 Vibration    27          0.676              1.721              1.571
 Vibration    28          0.690              1.680              1.435
 Vibration    29          0.704              1.642              1.327
 Vibration    30          0.737              1.548              1.108
 Vibration    31          0.752              1.507              1.028
 Vibration    32          0.787              1.417              0.876
 Vibration    33          0.789              1.410              0.866
 Vibration    34          0.801              1.380              0.823
 Vibration    35          0.853              1.255              0.664
 Vibration    36          0.888              1.177              0.580
 Vibration    37          0.892              1.168              0.571
 Vibration    38          0.905              1.141              0.546
 Vibration    39          0.926              1.095              0.504
 Vibration    40          0.939              1.069              0.481
 Vibration    41          0.940              1.068              0.480
 Vibration    42          0.955              1.037              0.454

 Normal termination of Gaussian 09 at Fri Apr  9 05:27:31 2021.
